<LesHouchesEvents version="1.0">
<!--
file generated with POWHEG-BOX version 0.0
Input file powheginput.dat contained:
! Random Number Generato
iseed 995356421 ! initialize random number sequence
!rand1 -1       ! initialize random number sequence
!rand2 -1       ! initialize random number sequence
 
! Single vector boson production parameters
idvecbos 23    ! PDG code for vector boson to be produced ( Z:23 )
vdecaymode 11  ! PDG code for first decay product of the vector boson  (11:e-; 12:ve; 13:mu-; 14:vmu
numevts 1000  ! number of events to be generated
ih1   1        ! hadron 1 (1: proton; -1: antiproton)
ih2   1        ! hadron 2 (1: proton; -1: antiproton)
lhans1  10901  ! pdf set (LHAGLUE number)
lhans2  10901  ! pdf set (LHAGLUE number)
ebeam1 3500    ! energy of beam 1 in GeV
ebeam2 3500    ! energy of beam 2 in GeV
muref 91.188   ! reference scale in GeV
facscfact 1.0    ! factorization scale factor: mufact=muref*facscfact
renscfact 1.0    ! renormalization scale factor: muren=muref*renscfact
bbscalevar 2   ! 0: fixed scales ; 1: dynamic scale M_V; 2: dynamic scales sqrt(m_V^2 +P_t^2)
 
! Parameters to allow-disallow use of stored data
use-old-grid 0     ! if 0 use old grid if file pwggrids.dat is present (# 0: regenerate)
use-old-ubound 0   ! if 0 use norm of upper bounding function stored in pwgubound.dat, if present (#
 
! Integration parameters
ncall1 120000  ! number of calls for initializing the integration grid
itmx1 5        ! number of iterations for initializing the integration grid
ncall2 250000  ! number of calls for computing the integral and finding upper bound
itmx2 5        ! number of iterations for computing the integral and finding upper bound
foldcsi   1    ! number of folds on x integration
foldy   1      ! number of folds on y integration
foldphi 1      ! number of folds on phi integration
nubound 150000 ! number of bbarra calls to setup norm of upper bounding function
!ivmax 1       ! <= 10, number of bins of the upper bound grid along v direction
iymax 1        ! <= 10, number of bins of the upper bound grid along x direction
icsimax 1      ! <= 10, number of bins of the upper bound grid along x direction
xupbound 2     ! upper bound factor in radiation generation
withdamp 1     ! (default 0, do not use) use Born-zero damping factor
 
! Optional parameters
!pdfreweight 1 ! (default 0, do not) write extra PDF infos on LHEF
End of powheginput.dat content
 Random number generator initialized with:    995356421      64987632             0
-->
<init>
     2212     2212  3.50000E+03  3.50000E+03     -1     -1     -1     -1      3      1
  1.91214E+03  7.06874E-01  1.00000E+00  10011
</init>
<event>
      6  10011  1.00000E+00  4.35711E+00 -1.00000E+00  2.54915E-01
       2    -1     0     0   501     0  0.000000000E+00  0.000000000E+00  2.357104324E+00  2.357104324E+00  0.000000000E+00  0.00000E+00  9.000E+00
      -2    -1     0     0     0   511  0.000000000E+00  0.000000000E+00 -7.710973616E+01  7.710973616E+01  0.000000000E+00  0.00000E+00  9.000E+00
      23     2     1     2     0     0  1.383682634E+00 -4.131566281E+00 -4.573595092E+01  5.012485369E+01  2.004343617E+01  0.00000E+00  9.000E+00
      11     1     3     3     0     0  1.016029443E+01 -5.589019154E+00 -2.693480838E+01  2.932494877E+01  5.109988029E-04  0.00000E+00  9.000E+00
     -11     1     3     3     0     0 -8.776611792E+00  1.457452873E+00 -1.880114254E+01  2.079990492E+01  5.109988177E-04  0.00000E+00  9.000E+00
      21     1     1     2   501   511 -1.383682634E+00  4.131566281E+00 -2.901668091E+01  2.934198679E+01  3.270626674E-07  0.00000E+00  9.000E+00
</event>
<event>
      6  10011  1.00000E+00  1.62520E+01 -1.00000E+00  1.74120E-01
       2    -1     0     0   501     0  0.000000000E+00  0.000000000E+00  3.950440654E+02  3.950440654E+02  0.000000000E+00  0.00000E+00  9.000E+00
      21    -1     0     0   511   501  0.000000000E+00  0.000000000E+00 -8.612746302E+00  8.612746302E+00  0.000000000E+00  0.00000E+00  9.000E+00
      23     2     1     2     0     0  8.657934618E+00  1.375376739E+01  3.668442164E+02  3.782052785E+02  9.055621259E+01  0.00000E+00  9.000E+00
      11     1     3     3     0     0  1.350862128E-01 -1.585823935E+01  3.290923735E+02  3.294742665E+02  5.109954135E-04  0.00000E+00  9.000E+00
     -11     1     3     3     0     0  8.522848405E+00  2.961200673E+01  3.775184293E+01  4.873101202E+01  5.109995118E-04  0.00000E+00  9.000E+00
       2     1     1     2   511     0 -8.657934618E+00 -1.375376739E+01  1.958710265E+01  2.545153314E+01  3.855990386E-07  0.00000E+00  9.000E+00
</event>
<event>
      6  10011  1.00000E+00  5.59616E+00 -1.00000E+00  2.30194E-01
      21    -1     0     0   511   501  0.000000000E+00  0.000000000E+00  1.378991953E+00  1.378991953E+00  0.000000000E+00  0.00000E+00  9.000E+00
       2    -1     0     0   501     0  0.000000000E+00  0.000000000E+00 -3.876438245E+02  3.876438245E+02  0.000000000E+00  0.00000E+00  9.000E+00
      23     2     1     2     0     0  4.101488655E+00  3.807210407E+00 -3.067824511E+02  3.093436723E+02  3.932833836E+01  0.00000E+00  9.000E+00
      11     1     3     3     0     0  3.142243359E+00  7.625315416E+00 -1.214895516E+01  1.468387688E+01  5.109984459E-04  0.00000E+00  9.000E+00
     -11     1     3     3     0     0  9.592452957E-01 -3.818105009E+00 -2.946334959E+02  2.946597954E+02  5.109725252E-04  0.00000E+00  9.000E+00
       2     1     1     2   511     0 -4.101488655E+00 -3.807210407E+00 -7.948238145E+01  7.967914421E+01  1.508038741E-06  0.00000E+00  9.000E+00
</event>
<event>
      6  10011  1.00000E+00  6.18664E+00 -1.00000E+00  2.23348E-01
      -2    -1     0     0     0   511  0.000000000E+00  0.000000000E+00  1.668559003E+02  1.668559003E+02  0.000000000E+00  0.00000E+00  9.000E+00
       2    -1     0     0   501     0  0.000000000E+00  0.000000000E+00 -1.876218988E+01  1.876218988E+01  0.000000000E+00  0.00000E+00  9.000E+00
      23     2     1     2     0     0  3.919145837E+00  4.786939965E+00  9.445326185E+01  1.316220512E+02  9.145857641E+01  0.00000E+00  9.000E+00
      11     1     3     3     0     0 -2.414322271E+01  7.808963828E+00 -6.994582724E+00  2.632108103E+01  5.109982805E-04  0.00000E+00  9.000E+00
     -11     1     3     3     0     0  2.806236855E+01 -3.022023863E+00  1.014478446E+02  1.053009702E+02  5.109975201E-04  0.00000E+00  9.000E+00
      21     1     1     2   501   511 -3.919145837E+00 -4.786939965E+00  5.364044858E+01  5.399603895E+01  3.704369931E-07  0.00000E+00  9.000E+00
</event>
<event>
      6  10011  1.00000E+00  2.90833E+01 -1.00000E+00  1.53946E-01
      21    -1     0     0   511   501  0.000000000E+00  0.000000000E+00  9.841505148E+01  9.841505148E+01  0.000000000E+00  0.00000E+00  9.000E+00
       1    -1     0     0   501     0  0.000000000E+00  0.000000000E+00 -6.846266461E+01  6.846266461E+01  0.000000000E+00  0.00000E+00  9.000E+00
      23     2     1     2     0     0  5.165212864E+00  2.862097435E+01 -2.951424608E+01  1.006801328E+02  9.175815401E+01  0.00000E+00  9.000E+00
      11     1     3     3     0     0  6.959381099E+00  6.141404571E+01 -2.786105829E+01  6.779643475E+01  5.109977167E-04  0.00000E+00  9.000E+00
     -11     1     3     3     0     0 -1.794168235E+00 -3.279307136E+01 -1.653187792E+00  3.288369807E+01  5.109987694E-04  0.00000E+00  9.000E+00
       1     1     1     2   511     0 -5.165212864E+00 -2.862097435E+01  5.946663295E+01  6.619758327E+01  9.153001116E-07  0.00000E+00  9.000E+00
</event>
<event>
      6  10011  1.00000E+00  5.32291E+00 -1.00000E+00  2.33779E-01
      -2    -1     0     0     0   511  0.000000000E+00  0.000000000E+00  4.241420899E+00  4.241420899E+00  0.000000000E+00  0.00000E+00  9.000E+00
       2    -1     0     0   501     0  0.000000000E+00  0.000000000E+00 -9.618280455E+02  9.618280455E+02  0.000000000E+00  0.00000E+00  9.000E+00
      23     2     1     2     0     0  3.188230863E+00  4.262453298E+00 -9.598871418E+02  9.602706990E+02  2.661122178E+01  0.00000E+00  9.000E+00
      11     1     3     3     0     0 -2.561612730E+00  1.122315499E+01 -2.007004429E+02  2.010303183E+02  5.110011319E-04  0.00000E+00  9.000E+00
     -11     1     3     3     0     0  5.749843593E+00 -6.960701690E+00 -7.591866988E+02  7.592403808E+02  5.109050364E-04  0.00000E+00  9.000E+00
      21     1     1     2   501   511 -3.188230863E+00 -4.262453298E+00  2.300517155E+00  5.798767398E+00  5.097602428E-07  0.00000E+00  9.000E+00
</event>
<event>
      6  10011  1.00000E+00  1.64354E+01 -1.00000E+00  1.73679E-01
      21    -1     0     0   511   501  0.000000000E+00  0.000000000E+00  4.700110053E+02  4.700110053E+02  0.000000000E+00  0.00000E+00  9.000E+00
       2    -1     0     0   501     0  0.000000000E+00  0.000000000E+00 -4.145160829E+00  4.145160829E+00  0.000000000E+00  0.00000E+00  9.000E+00
      23     2     1     2     0     0  1.438757614E+01  7.944822117E+00  1.346415890E+02  1.425243975E+02  4.375755764E+01  0.00000E+00  9.000E+00
      11     1     3     3     0     0  1.683785059E+01  1.184708254E+01  2.332084716E+01  3.110833472E+01  5.109994164E-04  0.00000E+00  9.000E+00
     -11     1     3     3     0     0 -2.450274444E+00 -3.902260419E+00  1.113207418E+02  1.114160628E+02  5.110025163E-04  0.00000E+00  9.000E+00
       2     1     1     2   511     0 -1.438757614E+01 -7.944822117E+00  3.312242555E+02  3.316317686E+02  4.332728826E-06  0.00000E+00  9.000E+00
</event>
<event>
      6  10011  1.00000E+00  8.73877E+00 -1.00000E+00  2.02715E-01
      21    -1     0     0   501   511  0.000000000E+00  0.000000000E+00  5.633863113E+00  5.633863113E+00  0.000000000E+00  0.00000E+00  9.000E+00
      -2    -1     0     0     0   501  0.000000000E+00  0.000000000E+00 -3.049615260E+02  3.049615260E+02  0.000000000E+00  0.00000E+00  9.000E+00
      23     2     1     2     0     0 -7.619530771E+00 -4.278885602E+00 -3.009332080E+02  3.017103519E+02  1.979835038E+01  0.00000E+00  9.000E+00
      11     1     3     3     0     0 -9.841553818E+00 -9.505639731E+00 -2.628597424E+02  2.632156104E+02  5.110277139E-04  0.00000E+00  9.000E+00
     -11     1     3     3     0     0  2.222023047E+00  5.226754129E+00 -3.807346555E+01  3.849474152E+01  5.109957386E-04  0.00000E+00  9.000E+00
      -2     1     1     2     0   511  7.619530771E+00  4.278885602E+00  1.605545081E+00  8.885037207E+00  4.909072761E-07  0.00000E+00  9.000E+00
</event>
<event>
      6  10011  1.00000E+00  6.25900E+00 -1.00000E+00  2.22582E-01
      -2    -1     0     0     0   511  0.000000000E+00  0.000000000E+00  3.561879951E+02  3.561879951E+02  0.000000000E+00  0.00000E+00  9.000E+00
       2    -1     0     0   501     0  0.000000000E+00  0.000000000E+00 -8.342811184E+00  8.342811184E+00  0.000000000E+00  0.00000E+00  9.000E+00
      23     2     1     2     0     0  2.125208465E+00  5.887148216E+00  2.334459263E+02  2.499604560E+02  8.912942288E+01  0.00000E+00  9.000E+00
      11     1     3     3     0     0  2.484736421E+01  2.836121183E+01  2.006718850E+02  2.041836313E+02  5.110028909E-04  0.00000E+00  9.000E+00
     -11     1     3     3     0     0 -2.272215575E+01 -2.247406362E+01  3.277404126E+01  4.577682468E+01  5.109992895E-04  0.00000E+00  9.000E+00
      21     1     1     2   501   511 -2.125208465E+00 -5.887148216E+00  1.143992577E+02  1.145703504E+02  1.709417152E-06  0.00000E+00  9.000E+00
</event>
<event>
      6  10011  1.00000E+00  5.75621E+00 -1.00000E+00  2.28226E-01
      -2    -1     0     0     0   501  0.000000000E+00  0.000000000E+00  1.311223460E+01  1.311223460E+01  0.000000000E+00  0.00000E+00  9.000E+00
       2    -1     0     0   511     0  0.000000000E+00  0.000000000E+00 -4.873856273E+02  4.873856273E+02  0.000000000E+00  0.00000E+00  9.000E+00
      23     2     1     2     0     0 -4.366076254E+00  3.751178140E+00 -1.446395644E+02  1.708137787E+02  9.068411902E+01  0.00000E+00  9.000E+00
      11     1     3     3     0     0  2.021851298E+01  7.833434259E+00 -1.442694984E+02  1.458898185E+02  5.109982987E-04  0.00000E+00  9.000E+00
     -11     1     3     3     0     0 -2.458458923E+01 -4.082256120E+00 -3.700659436E-01  2.492396019E+01  5.109987807E-04  0.00000E+00  9.000E+00
      21     1     1     2   511   501  4.366076254E+00 -3.751178140E+00 -3.296338284E+02  3.296840833E+02  1.592682507E-06  0.00000E+00  9.000E+00
</event>
<event>
      6  10011  1.00000E+00  2.31724E+01 -1.00000E+00  1.61221E-01
       3    -1     0     0   511     0  0.000000000E+00  0.000000000E+00  4.425543837E+02  4.425543837E+02  0.000000000E+00  0.00000E+00  9.000E+00
      -3    -1     0     0     0   501  0.000000000E+00  0.000000000E+00 -1.545823057E+01  1.545823057E+01  0.000000000E+00  0.00000E+00  9.000E+00
      23     2     1     2     0     0  2.297198438E+01 -3.041421989E+00  1.386968596E+02  1.686838828E+02  9.316904613E+01  0.00000E+00  9.000E+00
      11     1     3     3     0     0  6.626627790E+00  2.807544194E+01  1.290508306E+02  1.322356212E+02  5.109924291E-04  0.00000E+00  9.000E+00
     -11     1     3     3     0     0  1.634535659E+01 -3.111686393E+01  9.646029021E+00  3.644826167E+01  5.109983728E-04  0.00000E+00  9.000E+00
      21     1     1     2   511   501 -2.297198438E+01  3.041421989E+00  2.883992936E+02  2.893287315E+02  3.519198756E-06  0.00000E+00  9.000E+00
</event>
<event>
      6  10011  1.00000E+00  3.13338E+00 -1.00000E+00  2.91117E-01
      -2    -1     0     0     0   501  0.000000000E+00  0.000000000E+00  5.393922161E+00  5.393922161E+00  0.000000000E+00  0.00000E+00  9.000E+00
      21    -1     0     0   501   511  0.000000000E+00  0.000000000E+00 -1.051097501E+02  1.051097501E+02  0.000000000E+00  0.00000E+00  9.000E+00
      23     2     1     2     0     0 -6.819394717E-01  3.058267261E+00 -4.545365614E+01  5.615110721E+01  3.281910943E+01  0.00000E+00  9.000E+00
      11     1     3     3     0     0 -1.439824762E+01 -5.085597228E+00 -1.326676525E+01  2.022819552E+01  5.109991686E-04  0.00000E+00  9.000E+00
     -11     1     3     3     0     0  1.371630815E+01  8.143864489E+00 -3.218689090E+01  3.592291169E+01  5.109991551E-04  0.00000E+00  9.000E+00
      -2     1     1     2     0   511  6.819394717E-01 -3.058267261E+00 -5.426217177E+01  5.435256503E+01  2.854651818E-07  0.00000E+00  9.000E+00
</event>
<event>
      6  10011  1.00000E+00  2.98287E+00 -1.00000E+00  2.97485E-01
      -3    -1     0     0     0   501  0.000000000E+00  0.000000000E+00  1.020935102E+01  1.020935102E+01  0.000000000E+00  0.00000E+00  9.000E+00
      21    -1     0     0   501   511  0.000000000E+00  0.000000000E+00 -1.196422535E+01  1.196422535E+01  0.000000000E+00  0.00000E+00  9.000E+00
      23     2     1     2     0     0  1.573471780E+00 -2.534102055E+00 -3.449326040E+00  1.874302928E+01  1.817981875E+01  0.00000E+00  9.000E+00
      11     1     3     3     0     0  4.641633356E+00  4.436681508E+00  4.417264925E+00  7.793659775E+00  5.109989145E-04  0.00000E+00  9.000E+00
     -11     1     3     3     0     0 -3.068161575E+00 -6.970783563E+00 -7.866590965E+00  1.094936951E+01  5.109989040E-04  0.00000E+00  9.000E+00
      -3     1     1     2     0   511 -1.573471780E+00  2.534102055E+00  1.694451714E+00  3.430547082E+00  5.758405964E-08  0.00000E+00  9.000E+00
</event>
<event>
      6  10011  1.00000E+00  9.66779E+00 -1.00000E+00  1.97409E-01
      21    -1     0     0   511   501  0.000000000E+00  0.000000000E+00  1.141330751E+00  1.141330751E+00  0.000000000E+00  0.00000E+00  9.000E+00
       2    -1     0     0   501     0  0.000000000E+00  0.000000000E+00 -2.714433994E+02  2.714433994E+02  0.000000000E+00  0.00000E+00  9.000E+00
      23     2     1     2     0     0 -9.606914065E+00  1.083188634E+00 -2.329887333E+02  2.340392883E+02  1.992918740E+01  0.00000E+00  9.000E+00
      11     1     3     3     0     0 -1.478439081E+00  1.346229606E+00 -2.017300845E+02  2.017399938E+02  5.110097946E-04  0.00000E+00  9.000E+00
     -11     1     3     3     0     0 -8.128474984E+00 -2.630409718E-01 -3.125864882E+01  3.229929446E+01  5.109973339E-04  0.00000E+00  9.000E+00
       2     1     1     2   511     0  9.606914065E+00 -1.083188634E+00 -3.731333536E+01  3.854544190E+01  5.668320239E-07  0.00000E+00  9.000E+00
</event>
<event>
      6  10011  1.00000E+00  3.91387E+00 -1.00000E+00  2.65608E-01
       1    -1     0     0   501     0  0.000000000E+00  0.000000000E+00  1.422182395E+02  1.422182395E+02  0.000000000E+00  0.00000E+00  9.000E+00
      21    -1     0     0   511   501  0.000000000E+00  0.000000000E+00 -1.814306383E+01  1.814306383E+01  0.000000000E+00  0.00000E+00  9.000E+00
      23     2     1     2     0     0 -3.188413652E+00  2.269883652E+00  1.260321749E+02  1.559854377E+02  9.182608194E+01  0.00000E+00  9.000E+00
      11     1     3     3     0     0 -3.356669502E+01  7.878282047E+00  1.195478533E+02  1.244205753E+02  5.109973793E-04  0.00000E+00  9.000E+00
     -11     1     3     3     0     0  3.037828136E+01 -5.608398395E+00  6.484321603E+00  3.156486240E+01  5.109999753E-04  0.00000E+00  9.000E+00
       1     1     1     2   511     0  3.188413652E+00 -2.269883652E+00 -1.956999245E+00  4.375865567E+00  9.216094520E-08  0.00000E+00  9.000E+00
</event>
<event>
      6  10011  1.00000E+00  1.64173E+00 -1.00000E+00  4.08192E-01
       1    -1     0     0   511     0  0.000000000E+00  0.000000000E+00  5.312397611E+02  5.312397611E+02  0.000000000E+00  0.00000E+00  9.000E+00
      -1    -1     0     0     0   501  0.000000000E+00  0.000000000E+00 -2.061905588E-01  2.061905588E-01  0.000000000E+00  0.00000E+00  9.000E+00
      23     2     1     2     0     0 -1.454168915E+00 -7.620256951E-01  3.474693126E+02  3.478743524E+02  1.670169191E+01  0.00000E+00  9.000E+00
      11     1     3     3     0     0  7.114444401E+00  8.794654338E-02  9.872677250E+01  9.898282003E+01  5.109918694E-04  0.00000E+00  9.000E+00
     -11     1     3     3     0     0 -8.568613316E+00 -8.499722385E-01  2.487425401E+02  2.488915323E+02  5.109821270E-04  0.00000E+00  9.000E+00
      21     1     1     2   511   501  1.454168915E+00  7.620256951E-01  1.835642579E+02  1.835715993E+02  1.814763230E-06  0.00000E+00  9.000E+00
</event>
<event>
      6  10011  1.00000E+00  1.46741E+01 -1.00000E+00  1.78239E-01
      21    -1     0     0   501   511  0.000000000E+00  0.000000000E+00  3.301660454E+00  3.301660454E+00  0.000000000E+00  0.00000E+00  9.000E+00
      -1    -1     0     0     0   501  0.000000000E+00  0.000000000E+00 -1.463048039E+02  1.463048039E+02  0.000000000E+00  0.00000E+00  9.000E+00
      23     2     1     2     0     0 -1.459847417E+01 -1.487525914E+00 -7.006710124E+01  7.520892115E+01  2.305764436E+01  0.00000E+00  9.000E+00
      11     1     3     3     0     0 -1.825911195E+01 -3.016346267E+00 -3.223761134E+01  3.717199348E+01  5.109990776E-04  0.00000E+00  9.000E+00
     -11     1     3     3     0     0  3.660637776E+00  1.528820354E+00 -3.782948990E+01  3.803692767E+01  5.109992940E-04  0.00000E+00  9.000E+00
      -1     1     1     2     0   511  1.459847417E+01  1.487525914E+00 -7.293604221E+01  7.439754320E+01  5.563543648E-07  0.00000E+00  9.000E+00
</event>
<event>
      6  10011  1.00000E+00  3.09237E+00 -1.00000E+00  2.92792E-01
      -2    -1     0     0     0   501  0.000000000E+00  0.000000000E+00  7.220671902E-01  7.220671902E-01  0.000000000E+00  0.00000E+00  9.000E+00
       2    -1     0     0   511     0  0.000000000E+00  0.000000000E+00 -9.883140249E+02  9.883140249E+02  0.000000000E+00  0.00000E+00  9.000E+00
      23     2     1     2     0     0  9.104450424E-01 -2.955310143E+00 -7.676277144E+02  7.690501128E+02  4.664981510E+01  0.00000E+00  9.000E+00
      11     1     3     3     0     0 -1.983679888E+00  1.872788354E+01 -1.733633977E+02  1.743833027E+02  5.109508910E-04  0.00000E+00  9.000E+00
     -11     1     3     3     0     0  2.894124930E+00 -2.168319369E+01 -5.942643167E+02  5.946668100E+02  5.109652247E-04  0.00000E+00  9.000E+00
      21     1     1     2   511   501 -9.104450424E-01  2.955310143E+00 -2.199642433E+02  2.199859793E+02  2.181888249E-06  0.00000E+00  9.000E+00
</event>
<event>
      6  10011  1.00000E+00  1.54072E+00 -1.00000E+00  4.25511E-01
      -2    -1     0     0     0   501  0.000000000E+00  0.000000000E+00  1.190832854E+00  1.190832854E+00  0.000000000E+00  0.00000E+00  9.000E+00
       2    -1     0     0   511     0  0.000000000E+00  0.000000000E+00 -8.980106074E+01  8.980106074E+01  0.000000000E+00  0.00000E+00  9.000E+00
      23     2     1     2     0     0 -5.849469988E-01 -1.425365751E+00 -6.491750757E+01  6.724912993E+01  1.748681951E+01  0.00000E+00  9.000E+00
      11     1     3     3     0     0  5.602756505E+00 -6.916568808E-01 -6.978418644E+00  8.975945450E+00  5.109989020E-04  0.00000E+00  9.000E+00
     -11     1     3     3     0     0 -6.187703503E+00 -7.337088707E-01 -5.793908893E+01  5.827318448E+01  5.109981843E-04  0.00000E+00  9.000E+00
      21     1     1     2   511   501  5.849469988E-01  1.425365751E+00 -2.369272032E+01  2.374276367E+01  1.444721179E-07  0.00000E+00  9.000E+00
</event>
<event>
      6  10011  1.00000E+00  1.42866E+01 -1.00000E+00  1.79352E-01
       2    -1     0     0   501     0  0.000000000E+00  0.000000000E+00  5.681885225E+02  5.681885225E+02  0.000000000E+00  0.00000E+00  9.000E+00
      21    -1     0     0   511   501  0.000000000E+00  0.000000000E+00 -7.031049883E-01  7.031049883E-01  0.000000000E+00  0.00000E+00  9.000E+00
      23     2     1     2     0     0  1.039467198E+00 -1.424870504E+01  3.968777764E+02  3.976868574E+02  2.094662454E+01  0.00000E+00  9.000E+00
      11     1     3     3     0     0  5.228315043E+00  3.822655701E+00  1.331822536E+02  1.333396440E+02  5.109946713E-04  0.00000E+00  9.000E+00
     -11     1     3     3     0     0 -4.188847845E+00 -1.807136074E+01  2.636955227E+02  2.643472134E+02  5.110627652E-04  0.00000E+00  9.000E+00
       2     1     1     2   511     0 -1.039467198E+00  1.424870504E+01  1.706076412E+02  1.712047701E+02  6.570043470E-07  0.00000E+00  9.000E+00
</event>
<event>
      6  10011  1.00000E+00  3.27689E+01 -1.00000E+00  1.50390E-01
       2    -1     0     0   501     0  0.000000000E+00  0.000000000E+00  1.630618454E+02  1.630618454E+02  0.000000000E+00  0.00000E+00  9.000E+00
      21    -1     0     0   511   501  0.000000000E+00  0.000000000E+00 -8.722183443E+00  8.722183443E+00  0.000000000E+00  0.00000E+00  9.000E+00
      23     2     1     2     0     0  2.897075864E+01  1.531326452E+01  1.088637123E+02  1.157317057E+02  2.164991768E+01  0.00000E+00  9.000E+00
      11     1     3     3     0     0  2.505874204E+01  1.715414046E+00  6.849810831E+01  7.295802930E+01  5.109994967E-04  0.00000E+00  9.000E+00
     -11     1     3     3     0     0  3.912016598E+00  1.359785048E+01  4.036560396E+01  4.277367642E+01  5.109985954E-04  0.00000E+00  9.000E+00
       2     1     1     2   511     0 -2.897075864E+01 -1.531326452E+01  4.547594968E+01  5.605232311E+01  2.205170480E-07  0.00000E+00  9.000E+00
</event>
<event>
      6  10011  1.00000E+00  5.29361E+00 -1.00000E+00  2.34181E-01
       1    -1     0     0   501     0  0.000000000E+00  0.000000000E+00  8.727136822E+01  8.727136822E+01  0.000000000E+00  0.00000E+00  9.000E+00
      21    -1     0     0   511   501  0.000000000E+00  0.000000000E+00 -1.780583496E+02  1.780583496E+02  0.000000000E+00  0.00000E+00  9.000E+00
      23     2     1     2     0     0 -3.529056256E+00 -3.945638055E+00  5.706127849E+01  1.173867212E+02  1.024481846E+02  0.00000E+00  9.000E+00
      11     1     3     3     0     0  3.524910693E+01  2.364516625E+01 -8.183695546E-01  4.245307003E+01  5.109988138E-04  0.00000E+00  9.000E+00
     -11     1     3     3     0     0 -3.877816319E+01 -2.759080430E+01  5.787964805E+01  7.493365119E+01  5.109987274E-04  0.00000E+00  9.000E+00
       1     1     1     2   511     0  3.529056256E+00  3.945638055E+00 -1.478482598E+02  1.479429966E+02  1.432372909E-06  0.00000E+00  9.000E+00
</event>
<event>
      6  10011  1.00000E+00  4.63562E+00 -1.00000E+00  2.49142E-01
       2    -1     0     0   501     0  0.000000000E+00  0.000000000E+00  3.978280168E+02  3.978280168E+02  0.000000000E+00  0.00000E+00  9.000E+00
      21    -1     0     0   511   501  0.000000000E+00  0.000000000E+00 -5.913922942E+00  5.913922942E+00  0.000000000E+00  0.00000E+00  9.000E+00
      23     2     1     2     0     0 -4.616481497E+00 -4.207594462E-01  3.821884867E+02  3.929680651E+02  9.129278114E+01  0.00000E+00  9.000E+00
      11     1     3     3     0     0  3.430549512E+01 -2.280620117E+01  2.497698234E+02  2.531441377E+02  5.109919128E-04  0.00000E+00  9.000E+00
     -11     1     3     3     0     0 -3.892197662E+01  2.238544173E+01  1.324186634E+02  1.398239274E+02  5.109890814E-04  0.00000E+00  9.000E+00
       2     1     1     2   511     0  4.616481497E+00  4.207594462E-01  9.725607106E+00  1.077387458E+01  4.726863481E-08  0.00000E+00  9.000E+00
</event>
<event>
      6  10011  1.00000E+00  4.02426E+00 -1.00000E+00  2.62745E-01
      -1    -1     0     0     0   511  0.000000000E+00  0.000000000E+00  7.161801375E+00  7.161801375E+00  0.000000000E+00  0.00000E+00  9.000E+00
       1    -1     0     0   501     0  0.000000000E+00  0.000000000E+00 -3.625723884E+02  3.625723884E+02  0.000000000E+00  0.00000E+00  9.000E+00
      23     2     1     2     0     0  4.019088361E+00  2.039995521E-01 -3.535286635E+02  3.652916316E+02  9.186547494E+01  0.00000E+00  9.000E+00
      11     1     3     3     0     0  2.988479678E+01 -3.400729972E+01 -1.292630235E+02  1.369617711E+02  5.110008190E-04  0.00000E+00  9.000E+00
     -11     1     3     3     0     0 -2.586570841E+01  3.421129927E+01 -2.242656401E+02  2.283298605E+02  5.109970994E-04  0.00000E+00  9.000E+00
      21     1     1     2   501   511 -4.019088361E+00 -2.039995521E-01 -1.881923474E+00  4.442558163E+00  5.314050224E-08  0.00000E+00  9.000E+00
</event>
<event>
      6  10011  1.00000E+00  1.66630E+01 -1.00000E+00  1.73142E-01
      -2    -1     0     0     0   511  0.000000000E+00  0.000000000E+00  9.945855682E+00  9.945855682E+00  0.000000000E+00  0.00000E+00  9.000E+00
       2    -1     0     0   501     0  0.000000000E+00  0.000000000E+00 -4.991123709E+02  4.991123709E+02  0.000000000E+00  0.00000E+00  9.000E+00
      23     2     1     2     0     0 -4.118845929E+00 -1.614595639E+01 -4.839002602E+02  4.915828084E+02  8.495021405E+01  0.00000E+00  9.000E+00
      11     1     3     3     0     0  3.363791103E+01  1.440584617E+01 -2.527274800E+02  2.553629116E+02  5.109852870E-04  0.00000E+00  9.000E+00
     -11     1     3     3     0     0 -3.775675696E+01 -3.055180256E+01 -2.311727802E+02  2.362198968E+02  5.109988237E-04  0.00000E+00  9.000E+00
      21     1     1     2   501   511  4.118845929E+00  1.614595639E+01 -5.266255013E+00  1.747541820E+01  2.925242548E-07  0.00000E+00  9.000E+00
</event>
<event>
      6  10011  1.00000E+00  2.80109E+01 -1.00000E+00  1.55102E-01
      21    -1     0     0   501   511  0.000000000E+00  0.000000000E+00  3.325602273E+02  3.325602273E+02  0.000000000E+00  0.00000E+00  9.000E+00
      -2    -1     0     0     0   501  0.000000000E+00  0.000000000E+00 -1.276120145E+01  1.276120145E+01  0.000000000E+00  0.00000E+00  9.000E+00
      23     2     1     2     0     0  1.084481660E+01 -2.582633480E+01  1.763264191E+01  4.185951483E+01  2.562614495E+01  0.00000E+00  9.000E+00
      11     1     3     3     0     0  5.151410309E+00 -1.483578071E+00  1.592327504E+01  1.680144995E+01  5.109987874E-04  0.00000E+00  9.000E+00
     -11     1     3     3     0     0  5.693406294E+00 -2.434275673E+01  1.709366871E+00  2.505806488E+01  5.109988928E-04  0.00000E+00  9.000E+00
      -2     1     1     2     0   511 -1.084481660E+01  2.582633480E+01  3.021663839E+02  3.034619139E+02  3.683933530E-06  0.00000E+00  9.000E+00
</event>
<event>
      6  10011  1.00000E+00  6.96248E+00 -1.00000E+00  2.15812E-01
       2    -1     0     0   511     0  0.000000000E+00  0.000000000E+00  6.557699897E+02  6.557699897E+02  0.000000000E+00  0.00000E+00  9.000E+00
      -2    -1     0     0     0   501  0.000000000E+00  0.000000000E+00 -7.230240413E+00  7.230240413E+00  0.000000000E+00  0.00000E+00  9.000E+00
      23     2     1     2     0     0  6.686525695E+00  1.940762878E+00  3.117143050E+02  3.261028331E+02  9.554461594E+01  0.00000E+00  9.000E+00
      11     1     3     3     0     0  4.909812686E+01 -1.282738631E+01  1.564629314E+02  1.644865247E+02  5.109977669E-04  0.00000E+00  9.000E+00
     -11     1     3     3     0     0 -4.241160117E+01  1.476814919E+01  1.552513736E+02  1.616163084E+02  5.109890067E-04  0.00000E+00  9.000E+00
      21     1     1     2   511   501 -6.686525695E+00 -1.940762878E+00  3.368254443E+02  3.368973970E+02  2.721002629E-06  0.00000E+00  9.000E+00
</event>
<event>
      6  10011  1.00000E+00  2.23006E+00 -1.00000E+00  3.42166E-01
      -2    -1     0     0     0   501  0.000000000E+00  0.000000000E+00  1.381657245E-01  1.381657245E-01  0.000000000E+00  0.00000E+00  9.000E+00
       2    -1     0     0   511     0  0.000000000E+00  0.000000000E+00 -1.156546411E+03  1.156546411E+03  0.000000000E+00  0.00000E+00  9.000E+00
      23     2     1     2     0     0 -1.262125783E+00  1.838537552E+00 -9.818827608E+02  9.821448451E+02  2.257803427E+01  0.00000E+00  9.000E+00
      11     1     3     3     0     0 -1.483784470E+00  1.110513751E+01 -3.178627845E+02  3.180601758E+02  5.110250095E-04  0.00000E+00  9.000E+00
     -11     1     3     3     0     0  2.216586868E-01 -9.266599958E+00 -6.640199763E+02  6.640846693E+02  5.111644016E-04  0.00000E+00  9.000E+00
      21     1     1     2   511   501  1.262125783E+00 -1.838537552E+00 -1.745254842E+02  1.745397313E+02  1.780673176E-06  0.00000E+00  9.000E+00
</event>
<event>
      6  10011  1.00000E+00  1.95577E+00 -1.00000E+00  3.67444E-01
      21    -1     0     0   511   501  0.000000000E+00  0.000000000E+00  3.412027719E+02  3.412027719E+02  0.000000000E+00  0.00000E+00  9.000E+00
       2    -1     0     0   501     0  0.000000000E+00  0.000000000E+00 -2.535123855E+00  2.535123855E+00  0.000000000E+00  0.00000E+00  9.000E+00
      23     2     1     2     0     0 -1.785880632E+00  7.972955184E-01  4.113874223E+01  4.620256197E+01  2.093933073E+01  0.00000E+00  9.000E+00
      11     1     3     3     0     0 -5.945681174E-02  3.674714175E+00  4.244342486E+01  4.260224610E+01  5.109995675E-04  0.00000E+00  9.000E+00
     -11     1     3     3     0     0 -1.726423820E+00 -2.877418657E+00 -1.304682630E+00  3.600315869E+00  5.109988977E-04  0.00000E+00  9.000E+00
       2     1     1     2   511     0  1.785880632E+00 -7.972955184E-01  2.975289059E+02  2.975353338E+02  4.321233978E-06  0.00000E+00  9.000E+00
</event>
<event>
      6  10011  1.00000E+00  1.59090E+01 -1.00000E+00  1.74964E-01
       2    -1     0     0   501     0  0.000000000E+00  0.000000000E+00  3.773007371E+00  3.773007371E+00  0.000000000E+00  0.00000E+00  9.000E+00
      21    -1     0     0   511   501  0.000000000E+00  0.000000000E+00 -1.684234690E+02  1.684234690E+02  0.000000000E+00  0.00000E+00  9.000E+00
      23     2     1     2     0     0  1.485825140E+01  5.685853918E+00 -6.280414529E+01  6.911510696E+01  2.407157606E+01  0.00000E+00  9.000E+00
      11     1     3     3     0     0  1.667491448E+00 -7.710858882E+00 -3.257248381E+01  3.351424435E+01  5.109984651E-04  0.00000E+00  9.000E+00
     -11     1     3     3     0     0  1.319075995E+01  1.339671280E+01 -3.023166148E+01  3.560086260E+01  5.109989977E-04  0.00000E+00  9.000E+00
       2     1     1     2   511     0 -1.485825140E+01 -5.685853918E+00 -1.018463163E+02  1.030813694E+02  4.616955931E-07  0.00000E+00  9.000E+00
</event>
<event>
      6  10011  1.00000E+00  6.15515E+00 -1.00000E+00  2.23686E-01
      21    -1     0     0   501   511  0.000000000E+00  0.000000000E+00  5.808240729E+01  5.808240729E+01  0.000000000E+00  0.00000E+00  9.000E+00
      -4    -1     0     0     0   501  0.000000000E+00  0.000000000E+00 -1.467474297E+01  1.467474297E+01  0.000000000E+00  0.00000E+00  9.000E+00
      23     2     1     2     0     0 -5.184078065E+00 -3.318318947E+00 -5.770347492E+00  2.319544376E+01  2.160661462E+01  0.00000E+00  9.000E+00
      11     1     3     3     0     0  6.821967182E+00 -4.489791175E+00  2.533278690E+00  8.550728753E+00  5.109988947E-04  0.00000E+00  9.000E+00
     -11     1     3     3     0     0 -1.200604525E+01  1.171472229E+00 -8.303626182E+00  1.464471501E+01  5.109989008E-04  0.00000E+00  9.000E+00
      -4     1     1     2     0   511  5.184078065E+00  3.318318947E+00  4.917801181E+01  4.956170650E+01  3.610265684E-07  0.00000E+00  9.000E+00
</event>
<event>
      6  10011  1.00000E+00  1.52400E+00 -1.00000E+00  4.28648E-01
      21    -1     0     0   511   501  0.000000000E+00  0.000000000E+00  9.457217164E-02  9.457217164E-02  0.000000000E+00  0.00000E+00  9.000E+00
       2    -1     0     0   501     0  0.000000000E+00  0.000000000E+00 -2.536718518E+03  2.536718518E+03  0.000000000E+00  0.00000E+00  9.000E+00
      23     2     1     2     0     0 -1.258044702E+00 -8.601812234E-01 -2.495670533E+03  2.495831331E+03  2.828956282E+01  0.00000E+00  9.000E+00
      11     1     3     3     0     0  1.868006261E+00  1.337731652E+01 -1.036884773E+03  1.036972746E+03  5.104782864E-04  0.00000E+00  9.000E+00
     -11     1     3     3     0     0 -3.126050963E+00 -1.423749774E+01 -1.458785760E+03  1.458858585E+03  5.113973483E-04  0.00000E+00  9.000E+00
       2     1     1     2   511     0  1.258044702E+00  8.601812234E-01 -4.095341321E+01  4.098175987E+01  6.948640107E-07  0.00000E+00  9.000E+00
</event>
<event>
      6  10011  1.00000E+00  4.81025E+00 -1.00000E+00  2.45826E-01
      21    -1     0     0   511   501  0.000000000E+00  0.000000000E+00  4.140362517E+01  4.140362517E+01  0.000000000E+00  0.00000E+00  9.000E+00
       2    -1     0     0   501     0  0.000000000E+00  0.000000000E+00 -5.114063354E+02  5.114063354E+02  0.000000000E+00  0.00000E+00  9.000E+00
      23     2     1     2     0     0  3.016171417E+00  3.747165945E+00 -5.072367930E+02  5.152664464E+02  9.048319201E+01  0.00000E+00  9.000E+00
      11     1     3     3     0     0 -3.641092422E+01 -5.629465874E+00 -1.108332786E+02  1.167966692E+02  5.109816568E-04  0.00000E+00  9.000E+00
     -11     1     3     3     0     0  3.942709564E+01  9.376631819E+00 -3.964035144E+02  3.984697772E+02  5.109656279E-04  0.00000E+00  9.000E+00
       2     1     1     2   511     0 -3.016171417E+00 -3.747165945E+00  3.723408275E+01  3.754351423E+01  2.284596350E-06  0.00000E+00  9.000E+00
</event>
<event>
      6  10011  1.00000E+00  2.59928E+01 -1.00000E+00  1.57457E-01
       2    -1     0     0   501     0  0.000000000E+00  0.000000000E+00  6.112363309E+01  6.112363309E+01  0.000000000E+00  0.00000E+00  9.000E+00
      21    -1     0     0   511   501  0.000000000E+00  0.000000000E+00 -5.555625573E+01  5.555625573E+01  0.000000000E+00  0.00000E+00  9.000E+00
      23     2     1     2     0     0 -5.244799563E-01  2.598755374E+01  1.766304339E+01  8.801051203E+01  8.220850988E+01  0.00000E+00  9.000E+00
      11     1     3     3     0     0 -2.810371529E+01 -1.601202801E+01 -5.283123722E+00  3.277369754E+01  5.109988016E-04  0.00000E+00  9.000E+00
     -11     1     3     3     0     0  2.757923533E+01  4.199958176E+01  2.294616711E+01  5.523681449E+01  5.109985459E-04  0.00000E+00  9.000E+00
       2     1     1     2   511     0  5.244799563E-01 -2.598755374E+01 -1.209566603E+01  2.866937679E+01  3.951793848E-07  0.00000E+00  9.000E+00
</event>
<event>
      6  10011  1.00000E+00  9.40131E+00 -1.00000E+00  1.98848E-01
       2    -1     0     0   511     0  0.000000000E+00  0.000000000E+00  3.496251248E+01  3.496251248E+01  0.000000000E+00  0.00000E+00  9.000E+00
      -2    -1     0     0     0   501  0.000000000E+00  0.000000000E+00 -1.538674101E+01  1.538674101E+01  0.000000000E+00  0.00000E+00  9.000E+00
      23     2     1     2     0     0 -8.390117824E+00  4.241517297E+00  9.055507564E+00  3.624037336E+01  3.380795613E+01  0.00000E+00  9.000E+00
      11     1     3     3     0     0  3.799681244E+00  3.649720084E+00 -1.132199305E+01  1.248781651E+01  5.109989556E-04  0.00000E+00  9.000E+00
     -11     1     3     3     0     0 -1.218979907E+01  5.917972124E-01  2.037750062E+01  2.375255685E+01  5.109989430E-04  0.00000E+00  9.000E+00
      21     1     1     2   511   501  8.390117824E+00 -4.241517297E+00  1.052026390E+01  1.410888013E+01  2.227243869E-07  0.00000E+00  9.000E+00
</event>
<event>
      6  10011  1.00000E+00  1.00352E+01 -1.00000E+00  1.95523E-01
      21    -1     0     0   511   501  0.000000000E+00  0.000000000E+00  1.917396132E+00  1.917396132E+00  0.000000000E+00  0.00000E+00  9.000E+00
       2    -1     0     0   501     0  0.000000000E+00  0.000000000E+00 -1.959649322E+02  1.959649322E+02  0.000000000E+00  0.00000E+00  9.000E+00
      23     2     1     2     0     0  8.157610178E+00 -5.844527286E+00 -1.755827657E+02  1.768667901E+02  1.875763101E+01  0.00000E+00  9.000E+00
      11     1     3     3     0     0  7.652830210E+00 -3.511775417E+00 -2.739499258E+01  2.865979754E+01  5.109977182E-04  0.00000E+00  9.000E+00
     -11     1     3     3     0     0  5.047799678E-01 -2.332751869E+00 -1.481877731E+02  1.482069925E+02  5.109970282E-04  0.00000E+00  9.000E+00
       2     1     1     2   511     0 -8.157610178E+00  5.844527286E+00 -1.846477036E+01  2.101553824E+01  1.870080888E-07  0.00000E+00  9.000E+00
</event>
<event>
      6  10011  1.00000E+00  4.55557E+00 -1.00000E+00  2.50737E-01
      -2    -1     0     0     0   501  0.000000000E+00  0.000000000E+00  6.445716271E+00  6.445716271E+00  0.000000000E+00  0.00000E+00  9.000E+00
      21    -1     0     0   501   511  0.000000000E+00  0.000000000E+00 -1.270677385E+02  1.270677385E+02  0.000000000E+00  0.00000E+00  9.000E+00
      23     2     1     2     0     0  9.873702877E-01 -4.447279011E+00 -1.456977647E+01  2.736340993E+01  2.270957123E+01  0.00000E+00  9.000E+00
      11     1     3     3     0     0 -6.140256574E+00  3.848757870E+00 -1.473953783E+01  1.642466632E+01  5.109989794E-04  0.00000E+00  9.000E+00
     -11     1     3     3     0     0  7.127626862E+00 -8.296036881E+00  1.697613555E-01  1.093874361E+01  5.109988682E-04  0.00000E+00  9.000E+00
      -2     1     1     2     0   511 -9.873702877E-01  4.447279011E+00 -1.060522458E+02  1.061500449E+02  1.796810662E-06  0.00000E+00  9.000E+00
</event>
<event>
      6  10011  1.00000E+00  2.41329E+00 -1.00000E+00  3.28671E-01
      21    -1     0     0   511   501  0.000000000E+00  0.000000000E+00  1.586269714E-01  1.586269714E-01  0.000000000E+00  0.00000E+00  9.000E+00
       2    -1     0     0   501     0  0.000000000E+00  0.000000000E+00 -6.575991933E+02  6.575991933E+02  0.000000000E+00  0.00000E+00  9.000E+00
      23     2     1     2     0     0 -4.980289592E-01  2.361345994E+00 -6.174656188E+02  6.177100935E+02  1.720887136E+01  0.00000E+00  9.000E+00
      11     1     3     3     0     0 -6.466274094E+00  6.917900226E+00 -2.773790715E+02  2.775406625E+02  5.110074899E-04  0.00000E+00  9.000E+00
     -11     1     3     3     0     0  5.968245135E+00 -4.556554232E+00 -3.400865473E+02  3.401694310E+02  5.109929662E-04  0.00000E+00  9.000E+00
       2     1     1     2   511     0  4.980289592E-01 -2.361345994E+00 -3.997494757E+01  4.004772679E+01  9.333171943E-07  0.00000E+00  9.000E+00
</event>
<event>
      6  10011  1.00000E+00  2.64445E+00 -1.00000E+00  3.14390E-01
       2    -1     0     0   501     0  0.000000000E+00  0.000000000E+00  3.658457283E-01  3.658457283E-01  0.000000000E+00  0.00000E+00  9.000E+00
      -2    -1     0     0     0   511  0.000000000E+00  0.000000000E+00 -2.752927034E+02  2.752927034E+02  0.000000000E+00  0.00000E+00  9.000E+00
      23     2     1     2     0     0  1.004419483E+00 -2.446271807E+00 -2.009926961E+02  2.016771099E+02  1.638901048E+01  0.00000E+00  9.000E+00
      11     1     3     3     0     0 -6.737626043E+00  2.545339276E+00 -1.034474328E+02  1.036978578E+02  5.110003080E-04  0.00000E+00  9.000E+00
     -11     1     3     3     0     0  7.742045526E+00 -4.991611083E+00 -9.754526325E+01  9.797925205E+01  5.110051434E-04  0.00000E+00  9.000E+00
      21     1     1     2   501   511 -1.004419483E+00  2.446271807E+00 -7.393416154E+01  7.398143920E+01  1.287377540E-06  0.00000E+00  9.000E+00
</event>
<event>
      6  10011  1.00000E+00  4.18145E+00 -1.00000E+00  2.58907E-01
      21    -1     0     0   511   501  0.000000000E+00  0.000000000E+00  1.374565056E+00  1.374565056E+00  0.000000000E+00  0.00000E+00  9.000E+00
       2    -1     0     0   501     0  0.000000000E+00  0.000000000E+00 -2.070033193E+02  2.070033193E+02  0.000000000E+00  0.00000E+00  9.000E+00
      23     2     1     2     0     0  4.063318051E+00  9.869202948E-01 -1.968680243E+02  1.986704153E+02  2.637101404E+01  0.00000E+00  9.000E+00
      11     1     3     3     0     0  5.848805114E+00  8.497858612E-02 -1.965593579E+02  1.966463753E+02  5.109868791E-04  0.00000E+00  9.000E+00
     -11     1     3     3     0     0 -1.785487062E+00  9.019417087E-01 -3.086663917E-01  2.024040044E+00  5.109990395E-04  0.00000E+00  9.000E+00
       2     1     1     2   511     0 -4.063318051E+00 -9.869202948E-01 -8.760729976E+00  9.707469030E+00  2.873548981E-08  0.00000E+00  9.000E+00
</event>
<event>
      6  10011  1.00000E+00  3.12114E+01 -1.00000E+00  1.51821E-01
      -2    -1     0     0     0   501  0.000000000E+00  0.000000000E+00  1.017778592E+01  1.017778592E+01  0.000000000E+00  0.00000E+00  9.000E+00
       2    -1     0     0   511     0  0.000000000E+00  0.000000000E+00 -1.129832511E+03  1.129832511E+03  0.000000000E+00  0.00000E+00  9.000E+00
      23     2     1     2     0     0 -2.689855261E+01  1.583098298E+01 -2.211767742E+02  2.409903970E+02  9.046023364E+01  0.00000E+00  9.000E+00
      11     1     3     3     0     0  2.526182428E+01 -9.858262694E-01 -1.447716955E+02  1.469624967E+02  5.109829457E-04  0.00000E+00  9.000E+00
     -11     1     3     3     0     0 -5.216037688E+01  1.681680925E+01 -7.640507863E+01  9.402790028E+01  5.109983826E-04  0.00000E+00  9.000E+00
      21     1     1     2   511   501  2.689855261E+01 -1.583098298E+01 -8.984779505E+02  8.990198995E+02  5.864321650E-06  0.00000E+00  9.000E+00
</event>
<event>
      6  10011  1.00000E+00  1.76554E+00 -1.00000E+00  3.90136E-01
      -2    -1     0     0     0   511  0.000000000E+00  0.000000000E+00  2.653715437E+00  2.653715437E+00  0.000000000E+00  0.00000E+00  9.000E+00
       2    -1     0     0   501     0  0.000000000E+00  0.000000000E+00 -8.738779158E+02  8.738779158E+02  0.000000000E+00  0.00000E+00  9.000E+00
      23     2     1     2     0     0 -4.335515124E-01 -1.711478183E+00 -8.659953268E+02  8.710127325E+02  9.333893625E+01  0.00000E+00  9.000E+00
      11     1     3     3     0     0 -3.014838967E+01 -3.646682077E+01 -4.760123558E+02  4.783581475E+02  5.109448104E-04  0.00000E+00  9.000E+00
     -11     1     3     3     0     0  2.971483815E+01  3.475534259E+01 -3.899829710E+02  3.926545850E+02  5.108636876E-04  0.00000E+00  9.000E+00
      21     1     1     2   501   511  4.335515124E-01  1.711478183E+00 -5.228873551E+00  5.518898721E+00  8.856872788E-08  0.00000E+00  9.000E+00
</event>
<event>
      6  10011  1.00000E+00  8.48513E+00 -1.00000E+00  2.04319E-01
      21    -1     0     0   501   511  0.000000000E+00  0.000000000E+00  5.268953476E+01  5.268953476E+01  0.000000000E+00  0.00000E+00  9.000E+00
      -1    -1     0     0     0   501  0.000000000E+00  0.000000000E+00 -8.959373863E+01  8.959373863E+01  0.000000000E+00  0.00000E+00  9.000E+00
      23     2     1     2     0     0 -6.933676165E+00 -4.890964967E+00 -6.444151030E+01  1.134683354E+02  9.300729807E+01  0.00000E+00  9.000E+00
      11     1     3     3     0     0  9.249495190E+00  2.380382469E+01  1.347417840E+01  2.887436086E+01  5.109987577E-04  0.00000E+00  9.000E+00
     -11     1     3     3     0     0 -1.618317135E+01 -2.869478966E+01 -7.791568870E+01  8.459397458E+01  5.110002511E-04  0.00000E+00  9.000E+00
      -1     1     1     2     0   511  6.933676165E+00  4.890964967E+00  2.753730644E+01  2.881493795E+01  4.202153877E-07  0.00000E+00  9.000E+00
</event>
<event>
      6  10011  1.00000E+00  1.56494E+00 -1.00000E+00  4.21112E-01
       2    -1     0     0   511     0  0.000000000E+00  0.000000000E+00  1.154072682E+02  1.154072682E+02  0.000000000E+00  0.00000E+00  9.000E+00
      -2    -1     0     0     0   501  0.000000000E+00  0.000000000E+00 -1.503282329E+00  1.503282329E+00  0.000000000E+00  0.00000E+00  9.000E+00
      23     2     1     2     0     0  1.331453125E+00 -8.223548739E-01  1.012377167E+02  1.041479720E+02  2.439827376E+01  0.00000E+00  9.000E+00
      11     1     3     3     0     0 -7.677713793E+00 -6.974385134E+00  2.402649858E+01  2.616986762E+01  5.109984028E-04  0.00000E+00  9.000E+00
     -11     1     3     3     0     0  9.009166918E+00  6.152030260E+00  7.721121811E+01  7.797810441E+01  5.109989167E-04  0.00000E+00  9.000E+00
      21     1     1     2   511   501 -1.331453125E+00  8.223548739E-01  1.266626914E+01  1.276257845E+01  1.944658628E-07  0.00000E+00  9.000E+00
</event>
<event>
      6  10011  1.00000E+00  7.72051E+00 -1.00000E+00  2.09643E-01
      21    -1     0     0   511   501  0.000000000E+00  0.000000000E+00  1.253589232E+01  1.253589232E+01  0.000000000E+00  0.00000E+00  9.000E+00
       1    -1     0     0   501     0  0.000000000E+00  0.000000000E+00 -1.982118307E+02  1.982118307E+02  0.000000000E+00  0.00000E+00  9.000E+00
      23     2     1     2     0     0  2.505830471E+00  7.302537855E+00 -1.828376750E+02  2.025220325E+02  8.675224492E+01  0.00000E+00  9.000E+00
      11     1     3     3     0     0 -1.667648783E+01  9.783380829E+00 -6.862970670E-01  1.934659636E+01  5.109992921E-04  0.00000E+00  9.000E+00
     -11     1     3     3     0     0  1.918231830E+01 -2.480842974E+00 -1.821513780E+02  1.831754362E+02  5.109998248E-04  0.00000E+00  9.000E+00
       1     1     1     2   511     0 -2.505830471E+00 -7.302537855E+00 -2.838263355E+00  8.225690509E+00  1.307206701E-07  0.00000E+00  9.000E+00
</event>
<event>
      6  10011  1.00000E+00  2.42190E+01 -1.00000E+00  1.59752E-01
      21    -1     0     0   511   501  0.000000000E+00  0.000000000E+00  3.531581610E+00  3.531581610E+00  0.000000000E+00  0.00000E+00  9.000E+00
       2    -1     0     0   501     0  0.000000000E+00  0.000000000E+00 -1.173964344E+03  1.173964344E+03  0.000000000E+00  0.00000E+00  9.000E+00
      23     2     1     2     0     0 -1.725434494E+01 -1.699554934E+01 -6.864308400E+02  6.928884328E+02  9.121689110E+01  0.00000E+00  9.000E+00
      11     1     3     3     0     0 -3.864022890E+01 -4.373237034E+01 -4.940595661E+02  4.974941632E+02  5.109937031E-04  0.00000E+00  9.000E+00
     -11     1     3     3     0     0  2.138588396E+01  2.673682100E+01 -1.923712738E+02  1.953942697E+02  5.109744268E-04  0.00000E+00  9.000E+00
       2     1     1     2   511     0  1.725434494E+01  1.699554934E+01 -4.840019220E+02  4.846074923E+02  5.528792679E-06  0.00000E+00  9.000E+00
</event>
<event>
      6  10011  1.00000E+00  1.87039E+01 -1.00000E+00  1.68763E-01
       1    -1     0     0   511     0  0.000000000E+00  0.000000000E+00  3.003569361E+02  3.003569361E+02  0.000000000E+00  0.00000E+00  9.000E+00
      -1    -1     0     0     0   501  0.000000000E+00  0.000000000E+00 -1.081557590E+01  1.081557590E+01  0.000000000E+00  0.00000E+00  9.000E+00
      23     2     1     2     0     0 -1.868516651E+01  8.367978484E-01  2.252216987E+02  2.441885248E+02  9.248451994E+01  0.00000E+00  9.000E+00
      11     1     3     3     0     0 -2.355609148E+01  3.451637639E+01  4.761834942E+01  6.335437543E+01  5.109969046E-04  0.00000E+00  9.000E+00
     -11     1     3     3     0     0  4.870924977E+00 -3.367957854E+01  1.776033493E+02  1.808341494E+02  5.109948503E-04  0.00000E+00  9.000E+00
      21     1     1     2   511   501  1.868516651E+01 -8.367978484E-01  6.431966154E+01  6.698398718E+01  8.833259544E-07  0.00000E+00  9.000E+00
</event>
<event>
      6  10011  1.00000E+00  1.45460E+00 -1.00000E+00  4.55056E-01
      -2    -1     0     0     0   511  0.000000000E+00  0.000000000E+00  7.925234645E-01  7.925234645E-01  0.000000000E+00  0.00000E+00  9.000E+00
       2    -1     0     0   501     0  0.000000000E+00  0.000000000E+00 -1.358918707E+02  1.358918707E+02  0.000000000E+00  0.00000E+00  9.000E+00
      23     2     1     2     0     0  1.357192491E+00 -5.233390594E-01 -1.309601156E+02  1.322970152E+02  1.870381006E+01  0.00000E+00  9.000E+00
      11     1     3     3     0     0  7.973814418E+00  5.160687171E+00 -5.237479066E+01  5.322906260E+01  5.109998704E-04  0.00000E+00  9.000E+00
     -11     1     3     3     0     0 -6.616621927E+00 -5.684026230E+00 -7.858532493E+01  7.906795264E+01  5.109990118E-04  0.00000E+00  9.000E+00
      21     1     1     2   501   511 -1.357192491E+00  5.233390594E-01 -4.139231678E+00  4.387378957E+00  6.781409835E-08  0.00000E+00  9.000E+00
</event>
<event>
      6  10011  1.00000E+00  3.19156E+00 -1.00000E+00  2.88811E-01
      -1    -1     0     0     0   501  0.000000000E+00  0.000000000E+00  2.000822584E+01  2.000822584E+01  0.000000000E+00  0.00000E+00  9.000E+00
       1    -1     0     0   511     0  0.000000000E+00  0.000000000E+00 -7.518607534E+00  7.518607534E+00  0.000000000E+00  0.00000E+00  9.000E+00
      23     2     1     2     0     0 -3.144001595E+00  5.489161549E-01  1.242432580E+01  2.433460561E+01  2.067904987E+01  0.00000E+00  9.000E+00
      11     1     3     3     0     0 -8.607271541E+00 -3.653243229E+00  1.439562651E+01  1.716581988E+01  5.109988699E-04  0.00000E+00  9.000E+00
     -11     1     3     3     0     0  5.463269946E+00  4.202159384E+00 -1.971300713E+00  7.168785724E+00  5.109988913E-04  0.00000E+00  9.000E+00
      21     1     1     2   511   501  3.144001595E+00 -5.489161549E-01  6.529250658E-02  3.192227762E+00  5.166327916E-08  0.00000E+00  9.000E+00
</event>
<event>
      6  10011  1.00000E+00  1.21270E+00 -1.00000E+00  5.31850E-01
      -2    -1     0     0     0   511  0.000000000E+00  0.000000000E+00  5.394950411E+00  5.394950411E+00  0.000000000E+00  0.00000E+00  9.000E+00
       2    -1     0     0   501     0  0.000000000E+00  0.000000000E+00 -4.049002269E+02  4.049002269E+02  0.000000000E+00  0.00000E+00  9.000E+00
      23     2     1     2     0     0 -8.997847393E-01  8.130394600E-01 -3.961303874E+02  4.067090203E+02  9.214918734E+01  0.00000E+00  9.000E+00
      11     1     3     3     0     0 -2.889564752E+01  2.158577573E+01 -3.298857632E+02  3.318516550E+02  5.109738393E-04  0.00000E+00  9.000E+00
     -11     1     3     3     0     0  2.799586279E+01 -2.077273627E+01 -6.624462418E+01  7.485736529E+01  5.110024933E-04  0.00000E+00  9.000E+00
      21     1     1     2   501   511  8.997847393E-01 -8.130394600E-01 -3.374889120E+00  3.586157039E+00  1.834492721E-08  0.00000E+00  9.000E+00
</event>
<event>
      6  10011  1.00000E+00  6.27885E+00 -1.00000E+00  2.22375E-01
       1    -1     0     0   511     0  0.000000000E+00  0.000000000E+00  3.272533562E+02  3.272533562E+02  0.000000000E+00  0.00000E+00  9.000E+00
      -1    -1     0     0     0   501  0.000000000E+00  0.000000000E+00 -8.260081212E+00  8.260081212E+00  0.000000000E+00  0.00000E+00  9.000E+00
      23     2     1     2     0     0 -6.175683290E+00  1.133550284E+00  2.518244758E+02  2.680518069E+02  9.163394893E+01  0.00000E+00  9.000E+00
      11     1     3     3     0     0  1.504710150E+01 -5.179408543E-01  2.453365578E+02  2.457981084E+02  5.110200214E-04  0.00000E+00  9.000E+00
     -11     1     3     3     0     0 -2.122278479E+01  1.651491138E+00  6.487918026E+00  2.225369852E+01  5.110001862E-04  0.00000E+00  9.000E+00
      21     1     1     2   511   501  6.175683290E+00 -1.133550284E+00  6.716879919E+01  6.746163046E+01  4.568609511E-07  0.00000E+00  9.000E+00
</event>
<event>
      6  10011  1.00000E+00  1.88520E+00 -1.00000E+00  3.75261E-01
      -1    -1     0     0     0   501  0.000000000E+00  0.000000000E+00  1.451634718E+02  1.451634718E+02  0.000000000E+00  0.00000E+00  9.000E+00
      21    -1     0     0   501   511  0.000000000E+00  0.000000000E+00 -5.402929749E+01  5.402929749E+01  0.000000000E+00  0.00000E+00  9.000E+00
      23     2     1     2     0     0  5.829544063E-01  1.792799729E+00  1.215855677E+02  1.686830771E+02  1.169075544E+02  0.00000E+00  9.000E+00
      11     1     3     3     0     0  3.554814486E+01  3.908325390E+01  1.001923437E+02  1.132681644E+02  5.110016125E-04  0.00000E+00  9.000E+00
     -11     1     3     3     0     0 -3.496519045E+01 -3.729045417E+01  2.139322397E+01  5.541491268E+01  5.109985232E-04  0.00000E+00  9.000E+00
      -1     1     1     2     0   511 -5.829544063E-01 -1.792799729E+00 -3.045139330E+01  3.050969224E+01  5.267302287E-07  0.00000E+00  9.000E+00
</event>
<event>
      6  10011  1.00000E+00  2.77229E+00 -1.00000E+00  3.07523E-01
       2    -1     0     0   501     0  0.000000000E+00  0.000000000E+00  5.189160286E+00  5.189160286E+00  0.000000000E+00  0.00000E+00  9.000E+00
      -2    -1     0     0     0   511  0.000000000E+00  0.000000000E+00 -5.018770254E+02  5.018770254E+02  0.000000000E+00  0.00000E+00  9.000E+00
      23     2     1     2     0     0  2.452428271E+00 -1.292752957E+00 -3.932581881E+02  4.035993615E+02  9.073453864E+01  0.00000E+00  9.000E+00
      11     1     3     3     0     0  4.216507011E+01  1.624454483E+01 -2.443123370E+02  2.484558238E+02  5.109987715E-04  0.00000E+00  9.000E+00
     -11     1     3     3     0     0 -3.971264184E+01 -1.753729779E+01 -1.489458511E+02  1.551435378E+02  5.110100379E-04  0.00000E+00  9.000E+00
      21     1     1     2   501   511 -2.452428271E+00  1.292752957E+00 -1.034296770E+02  1.034668242E+02  3.182017282E-07  0.00000E+00  9.000E+00
</event>
<event>
      6  10011  1.00000E+00  3.82148E+00 -1.00000E+00  2.68119E-01
      -2    -1     0     0     0   501  0.000000000E+00  0.000000000E+00  6.130818282E+01  6.130818282E+01  0.000000000E+00  0.00000E+00  9.000E+00
       2    -1     0     0   511     0  0.000000000E+00  0.000000000E+00 -4.242469431E+01  4.242469431E+01  0.000000000E+00  0.00000E+00  9.000E+00
      23     2     1     2     0     0 -3.630361471E+00  1.193386564E+00  2.468388796E+01  9.678677537E+01  9.350819144E+01  0.00000E+00  9.000E+00
      11     1     3     3     0     0 -3.791615621E+01 -2.550207844E+01  2.734621232E+01  5.325228854E+01  5.109981250E-04  0.00000E+00  9.000E+00
     -11     1     3     3     0     0  3.428579473E+01  2.669546501E+01 -2.662324361E+00  4.353448683E+01  5.109983213E-04  0.00000E+00  9.000E+00
      21     1     1     2   511   501  3.630361471E+00 -1.193386564E+00 -5.800399447E+00  6.946101759E+00  8.503133215E-08  0.00000E+00  9.000E+00
</event>
<event>
      6  10011  1.00000E+00  5.30252E+00 -1.00000E+00  2.34059E-01
      -2    -1     0     0     0   511  0.000000000E+00  0.000000000E+00  6.213529616E-01  6.213529616E-01  0.000000000E+00  0.00000E+00  9.000E+00
       2    -1     0     0   501     0  0.000000000E+00  0.000000000E+00 -2.775993004E+02  2.775993004E+02  0.000000000E+00  0.00000E+00  9.000E+00
      23     2     1     2     0     0  4.433515703E+00  2.908715580E+00 -2.310178153E+02  2.319556511E+02  2.015133755E+01  0.00000E+00  9.000E+00
      11     1     3     3     0     0  6.117542126E+00  3.301360245E+00 -2.296385827E+02  2.297437746E+02  5.109857354E-04  0.00000E+00  9.000E+00
     -11     1     3     3     0     0 -1.684026423E+00 -3.926446651E-01 -1.379232583E+00  2.211876489E+00  5.109991007E-04  0.00000E+00  9.000E+00
      21     1     1     2   501   511 -4.433515703E+00 -2.908715580E+00 -4.596013216E+01  4.626500228E+01  5.547556421E-07  0.00000E+00  9.000E+00
</event>
<event>
      6  10011  1.00000E+00  2.32070E+00 -1.00000E+00  3.35212E-01
       2    -1     0     0   511     0  0.000000000E+00  0.000000000E+00  1.221149764E+03  1.221149764E+03  0.000000000E+00  0.00000E+00  9.000E+00
      -2    -1     0     0     0   501  0.000000000E+00  0.000000000E+00 -6.052037436E-01  6.052037436E-01  0.000000000E+00  0.00000E+00  9.000E+00
      23     2     1     2     0     0 -2.277714640E+00  4.445962104E-01  4.714138682E+02  4.726206811E+02  3.367324485E+01  0.00000E+00  9.000E+00
      11     1     3     3     0     0  1.483653645E+01  3.095024241E+00  2.854798762E+02  2.858819017E+02  5.109647101E-04  0.00000E+00  9.000E+00
     -11     1     3     3     0     0 -1.711425109E+01 -2.650428030E+00  1.859339920E+02  1.867387794E+02  5.110030890E-04  0.00000E+00  9.000E+00
      21     1     1     2   511   501  2.277714640E+00 -4.445962104E-01  7.491306923E+02  7.491342869E+02  7.513023022E-06  0.00000E+00  9.000E+00
</event>
<event>
      6  10011  1.00000E+00  2.53707E+00 -1.00000E+00  3.20694E-01
       2    -1     0     0   511     0  0.000000000E+00  0.000000000E+00  2.738251632E+02  2.738251632E+02  0.000000000E+00  0.00000E+00  9.000E+00
      -2    -1     0     0     0   501  0.000000000E+00  0.000000000E+00 -8.092282932E+00  8.092282932E+00  0.000000000E+00  0.00000E+00  9.000E+00
      23     2     1     2     0     0  2.395052410E+00 -8.369267732E-01  2.543644178E+02  2.702693278E+02  9.131164093E+01  0.00000E+00  9.000E+00
      11     1     3     3     0     0  2.238918815E+01  3.196546551E+01  1.995698262E+02  2.033499010E+02  5.110012153E-04  0.00000E+00  9.000E+00
     -11     1     3     3     0     0 -1.999413574E+01 -3.280239229E+01  5.479459166E+01  6.691942676E+01  5.109978062E-04  0.00000E+00  9.000E+00
      21     1     1     2   511   501 -2.395052410E+00  8.369267732E-01  1.136846243E+01  1.164811832E+01  4.165001172E-08  0.00000E+00  9.000E+00
</event>
<event>
      6  10011  1.00000E+00  1.07138E+02 -1.00000E+00  1.22474E-01
      -3    -1     0     0     0   501  0.000000000E+00  0.000000000E+00  9.159845225E+01  9.159845225E+01  0.000000000E+00  0.00000E+00  9.000E+00
      21    -1     0     0   501   511  0.000000000E+00  0.000000000E+00 -1.745827972E+02  1.745827972E+02  0.000000000E+00  0.00000E+00  9.000E+00
      23     2     1     2     0     0 -7.967479837E+01 -7.162769924E+01 -1.964685742E+01  1.417214643E+02  9.066627622E+01  0.00000E+00  9.000E+00
      11     1     3     3     0     0 -7.575000024E+01 -6.005105347E+01  2.130400497E+01  9.898511094E+01  5.110012720E-04  0.00000E+00  9.000E+00
     -11     1     3     3     0     0 -3.924798131E+00 -1.157664577E+01 -4.095086239E+01  4.273635336E+01  5.109988239E-04  0.00000E+00  9.000E+00
      -3     1     1     2     0   511  7.967479837E+01  7.162769924E+01 -6.333748753E+01  1.244597851E+02  2.038683623E-06  0.00000E+00  9.000E+00
</event>
<event>
      6  10011  1.00000E+00  9.50945E+00 -1.00000E+00  1.98257E-01
      21    -1     0     0   501   511  0.000000000E+00  0.000000000E+00  3.672051335E+02  3.672051335E+02  0.000000000E+00  0.00000E+00  9.000E+00
      -1    -1     0     0     0   501  0.000000000E+00  0.000000000E+00 -1.162150088E+01  1.162150088E+01  0.000000000E+00  0.00000E+00  9.000E+00
      23     2     1     2     0     0 -4.118525113E+00  8.571308796E+00  1.729857088E+02  1.959812588E+02  9.161969643E+01  0.00000E+00  9.000E+00
      11     1     3     3     0     0  3.359563988E+01  1.421434807E+01  2.778209664E+01  4.585367602E+01  5.109988689E-04  0.00000E+00  9.000E+00
     -11     1     3     3     0     0 -3.771416499E+01 -5.643039278E+00  1.452036122E+02  1.501275828E+02  5.109959471E-04  0.00000E+00  9.000E+00
      -1     1     1     2     0   511  4.118525113E+00 -8.571308796E+00  1.825979238E+02  1.828453756E+02  1.864015552E-06  0.00000E+00  9.000E+00
</event>
<event>
      6  10011  1.00000E+00  5.04845E+00 -1.00000E+00  2.37699E-01
      -2    -1     0     0     0   511  0.000000000E+00  0.000000000E+00  1.110960078E+00  1.110960078E+00  0.000000000E+00  0.00000E+00  9.000E+00
       2    -1     0     0   501     0  0.000000000E+00  0.000000000E+00 -2.333247929E+02  2.333247929E+02  0.000000000E+00  0.00000E+00  9.000E+00
      23     2     1     2     0     0 -4.514032737E+00  2.260610891E+00 -2.177836189E+02  2.191479170E+02  2.388761268E+01  0.00000E+00  9.000E+00
      11     1     3     3     0     0 -2.809469436E+00  6.075965720E+00 -1.630074438E+01  1.762171233E+01  5.110005555E-04  0.00000E+00  9.000E+00
     -11     1     3     3     0     0 -1.704563301E+00 -3.815354829E+00 -2.014828745E+02  2.015262047E+02  5.109956637E-04  0.00000E+00  9.000E+00
      21     1     1     2   501   511  4.514032737E+00 -2.260610891E+00 -1.443021398E+01  1.528783597E+01  2.008204456E-07  0.00000E+00  9.000E+00
</event>
<event>
      6  10011  1.00000E+00  1.75383E+01 -1.00000E+00  1.71173E-01
       1    -1     0     0   501     0  0.000000000E+00  0.000000000E+00  3.227605327E+01  3.227605327E+01  0.000000000E+00  0.00000E+00  9.000E+00
      21    -1     0     0   511   501  0.000000000E+00  0.000000000E+00 -1.143892946E+02  1.143892946E+02  0.000000000E+00  0.00000E+00  9.000E+00
      23     2     1     2     0     0  1.689266932E+01 -4.714823379E+00 -3.513679428E+01  9.652176988E+01  8.817179772E+01  0.00000E+00  9.000E+00
      11     1     3     3     0     0  2.651666507E+01  3.316102171E+01  2.142156573E+00  4.251324173E+01  5.109988503E-04  0.00000E+00  9.000E+00
     -11     1     3     3     0     0 -9.623995752E+00 -3.787584509E+01 -3.727895085E+01  5.400852815E+01  5.109985601E-04  0.00000E+00  9.000E+00
       1     1     1     2   511     0 -1.689266932E+01  4.714823379E+00 -4.697644705E+01  5.014357799E+01  2.702825836E-07  0.00000E+00  9.000E+00
</event>
<event>
      6  10011  1.00000E+00  3.29770E+00 -1.00000E+00  2.84804E-01
      21    -1     0     0   501   511  0.000000000E+00  0.000000000E+00  1.045332863E+01  1.045332863E+01  0.000000000E+00  0.00000E+00  9.000E+00
      -4    -1     0     0     0   501  0.000000000E+00  0.000000000E+00 -2.635103187E+01  2.635103187E+01  0.000000000E+00  0.00000E+00  9.000E+00
      23     2     1     2     0     0  4.334516932E-01  3.269088351E+00 -2.326905965E+01  2.872898347E+01  1.652363565E+01  0.00000E+00  9.000E+00
      11     1     3     3     0     0 -9.484666747E-01  9.641347063E+00 -1.759351423E+01  2.008449415E+01  5.109989936E-04  0.00000E+00  9.000E+00
     -11     1     3     3     0     0  1.381918368E+00 -6.372258711E+00 -5.675545421E+00  8.644489317E+00  5.109989337E-04  0.00000E+00  9.000E+00
      -4     1     1     2     0   511 -4.334516932E-01 -3.269088351E+00  7.371356407E+00  8.075377037E+00  1.102742561E-07  0.00000E+00  9.000E+00
</event>
<event>
      6  10011  1.00000E+00  5.91764E+00 -1.00000E+00  2.26329E-01
       1    -1     0     0   501     0  0.000000000E+00  0.000000000E+00  9.426668794E+01  9.426668794E+01  0.000000000E+00  0.00000E+00  9.000E+00
      -1    -1     0     0     0   511  0.000000000E+00  0.000000000E+00 -2.531362881E+01  2.531362881E+01  0.000000000E+00  0.00000E+00  9.000E+00
      23     2     1     2     0     0 -4.558748715E+00 -3.773095193E+00  6.906103729E+01  1.136616939E+02  9.008071576E+01  0.00000E+00  9.000E+00
      11     1     3     3     0     0  2.610898693E+01  6.224188891E+00 -9.709336847E+00  2.854279153E+01  5.109991549E-04  0.00000E+00  9.000E+00
     -11     1     3     3     0     0 -3.066773565E+01 -9.997284085E+00  7.877037414E+01  8.511890237E+01  5.109989653E-04  0.00000E+00  9.000E+00
      21     1     1     2   501   511  4.558748715E+00  3.773095193E+00 -1.079781553E-01  5.918622853E+00  8.428191422E-08  0.00000E+00  9.000E+00
</event>
<event>
      6  10011  1.00000E+00  4.72660E+00 -1.00000E+00  2.47388E-01
      -2    -1     0     0     0   511  0.000000000E+00  0.000000000E+00  2.083441843E+00  2.083441843E+00  0.000000000E+00  0.00000E+00  9.000E+00
       2    -1     0     0   501     0  0.000000000E+00  0.000000000E+00 -1.938929905E+03  1.938929905E+03  0.000000000E+00  0.00000E+00  9.000E+00
      23     2     1     2     0     0 -4.592383158E+00  1.118363376E+00 -1.932102001E+03  1.934316285E+03  9.240674175E+01  0.00000E+00  9.000E+00
      11     1     3     3     0     0 -3.212171617E+00 -4.384494967E+01 -6.893617834E+02  6.907621632E+02  5.113132818E-04  0.00000E+00  9.000E+00
     -11     1     3     3     0     0 -1.380211540E+00  4.496331304E+01 -1.242740218E+03  1.243554122E+03  5.113206469E-04  0.00000E+00  9.000E+00
      21     1     1     2   501   511  4.592383158E+00 -1.118363376E+00 -4.744461727E+00  6.697061802E+00  3.442216616E-07  0.00000E+00  9.000E+00
</event>
<event>
      6  10011  1.00000E+00  9.16347E+00 -1.00000E+00  2.00187E-01
      21    -1     0     0   511   501  0.000000000E+00  0.000000000E+00  1.827114257E+02  1.827114257E+02  0.000000000E+00  0.00000E+00  9.000E+00
       4    -1     0     0   501     0  0.000000000E+00  0.000000000E+00 -3.435894505E+00  3.435894505E+00  0.000000000E+00  0.00000E+00  9.000E+00
      23     2     1     2     0     0  6.275293008E-01  9.141956625E+00  5.906967885E+01  6.559270145E+01  2.700382122E+01  0.00000E+00  9.000E+00
      11     1     3     3     0     0  4.641469136E+00  1.350166250E+01  1.353227746E+01  1.967131566E+01  5.109990017E-04  0.00000E+00  9.000E+00
     -11     1     3     3     0     0 -4.013939836E+00 -4.359705876E+00  4.553740139E+01  4.592138580E+01  5.109984398E-04  0.00000E+00  9.000E+00
       4     1     1     2   511     0 -6.275293008E-01 -9.141956625E+00  1.202058523E+02  1.205546187E+02  1.380269072E-06  0.00000E+00  9.000E+00
</event>
<event>
      6  10011  1.00000E+00  3.87662E+01 -1.00000E+00  1.45657E-01
      21    -1     0     0   511   501  0.000000000E+00  0.000000000E+00  1.274035191E+01  1.274035191E+01  0.000000000E+00  0.00000E+00  9.000E+00
       2    -1     0     0   501     0  0.000000000E+00  0.000000000E+00 -4.015112645E+02  4.015112645E+02  0.000000000E+00  0.00000E+00  9.000E+00
      23     2     1     2     0     0  3.137817637E+01 -2.276469515E+01 -3.253419108E+02  3.399141456E+02  9.050660841E+01  0.00000E+00  9.000E+00
      11     1     3     3     0     0  8.671438480E-01 -5.405743128E+01 -1.596955404E+02  1.685990019E+02  5.110030681E-04  0.00000E+00  9.000E+00
     -11     1     3     3     0     0  3.051103252E+01  3.129273613E+01 -1.656463705E+02  1.713151438E+02  5.110150331E-04  0.00000E+00  9.000E+00
       2     1     1     2   511     0 -3.137817637E+01  2.276469515E+01 -6.342900176E+01  7.433747078E+01  4.588009214E-07  0.00000E+00  9.000E+00
</event>
<event>
      6  10011  1.00000E+00  5.43940E+00 -1.00000E+00  2.32215E-01
       5    -1     0     0   501     0  0.000000000E+00  0.000000000E+00  8.714449153E+00  8.714449153E+00  0.000000000E+00  0.00000E+00  9.000E+00
      21    -1     0     0   511   501  0.000000000E+00  0.000000000E+00 -4.063871361E+01  4.063871361E+01  0.000000000E+00  0.00000E+00  9.000E+00
      23     2     1     2     0     0 -4.391823138E+00  3.209199216E+00 -3.812886170E+00  2.072037283E+01  1.962673379E+01  0.00000E+00  9.000E+00
      11     1     3     3     0     0 -1.308290040E+00  1.101233138E+01 -5.144732632E+00  1.222502922E+01  5.109988743E-04  0.00000E+00  9.000E+00
     -11     1     3     3     0     0 -3.083533097E+00 -7.803132162E+00  1.331846462E+00  8.495343616E+00  5.109988842E-04  0.00000E+00  9.000E+00
       5     1     1     2   511     0  4.391823138E+00 -3.209199216E+00 -2.811137829E+01  2.863278993E+01  8.752450440E-08  0.00000E+00  9.000E+00
</event>
<event>
      6  10011  1.00000E+00  2.70849E+00 -1.00000E+00  3.10869E-01
       2    -1     0     0   511     0  0.000000000E+00  0.000000000E+00  1.172545445E+03  1.172545445E+03  0.000000000E+00  0.00000E+00  9.000E+00
      -2    -1     0     0     0   501  0.000000000E+00  0.000000000E+00 -1.983474634E+00  1.983474634E+00  0.000000000E+00  0.00000E+00  9.000E+00
      23     2     1     2     0     0  2.139916475E+00 -1.660331899E+00  1.072303095E+03  1.076232722E+03  9.184556451E+01  0.00000E+00  9.000E+00
      11     1     3     3     0     0 -4.089023844E+01 -1.834424006E+01  6.042917088E+02  6.059513116E+02  5.112074635E-04  0.00000E+00  9.000E+00
     -11     1     3     3     0     0  4.303015491E+01  1.668390816E+01  4.680113866E+02  4.702814105E+02  5.110395880E-04  0.00000E+00  9.000E+00
      21     1     1     2   511   501 -2.139916475E+00  1.660331899E+00  9.825887480E+01  9.829619739E+01  1.040523663E-06  0.00000E+00  9.000E+00
</event>
<event>
      6  10011  1.00000E+00  3.64519E+00 -1.00000E+00  2.73235E-01
      -2    -1     0     0     0   511  0.000000000E+00  0.000000000E+00  6.358070243E+02  6.358070243E+02  0.000000000E+00  0.00000E+00  9.000E+00
       2    -1     0     0   501     0  0.000000000E+00  0.000000000E+00 -3.641581310E+00  3.641581310E+00  0.000000000E+00  0.00000E+00  9.000E+00
      23     2     1     2     0     0 -1.439192750E+00  3.349054235E+00  5.726955498E+02  5.798671014E+02  9.084258452E+01  0.00000E+00  9.000E+00
      11     1     3     3     0     0 -7.994065447E+00  4.490601358E+01  2.205331140E+02  2.252005984E+02  5.109992999E-04  0.00000E+00  9.000E+00
     -11     1     3     3     0     0  6.554872697E+00 -4.155695934E+01  3.521624358E+02  3.546665031E+02  5.110181338E-04  0.00000E+00  9.000E+00
      21     1     1     2   501   511  1.439192750E+00 -3.349054235E+00  5.946989328E+01  5.958150423E+01  5.204751848E-07  0.00000E+00  9.000E+00
</event>
<event>
      6  10011  1.00000E+00  4.02736E+00 -1.00000E+00  2.62667E-01
      -1    -1     0     0     0   501  0.000000000E+00  0.000000000E+00  4.051814351E+01  4.051814351E+01  0.000000000E+00  0.00000E+00  9.000E+00
      21    -1     0     0   501   511  0.000000000E+00  0.000000000E+00 -6.534950088E+01  6.534950088E+01  0.000000000E+00  0.00000E+00  9.000E+00
      23     2     1     2     0     0 -3.900622194E+00  1.002368137E+00 -1.213222919E+01  9.254520272E+01  9.165808183E+01  0.00000E+00  9.000E+00
      11     1     3     3     0     0  1.722905100E+01 -3.013762110E+01 -3.435592726E+01  4.884102929E+01  5.109989409E-04  0.00000E+00  9.000E+00
     -11     1     3     3     0     0 -2.112967319E+01  3.113998924E+01  2.222369807E+01  4.370417343E+01  5.109990253E-04  0.00000E+00  9.000E+00
      -1     1     1     2     0   511  3.900622194E+00 -1.002368137E+00 -1.269912818E+01  1.332244167E+01  1.180393958E-07  0.00000E+00  9.000E+00
</event>
<event>
      6  10011  1.00000E+00  2.88608E+01 -1.00000E+00  1.54181E-01
       4    -1     0     0   511     0  0.000000000E+00  0.000000000E+00  4.174972514E+01  4.174972514E+01  0.000000000E+00  0.00000E+00  9.000E+00
      -4    -1     0     0     0   501  0.000000000E+00  0.000000000E+00 -5.146249269E+01  5.146249269E+01  0.000000000E+00  0.00000E+00  9.000E+00
      23     2     1     2     0     0 -2.847723296E+01 -4.689475880E+00 -2.264955372E+01  6.158462833E+01  4.946433243E+01  0.00000E+00  9.000E+00
      11     1     3     3     0     0  3.927050059E+00 -1.382334653E+01  7.659757482E+00  1.628430276E+01  5.109988838E-04  0.00000E+00  9.000E+00
     -11     1     3     3     0     0 -3.240428302E+01  9.133870654E+00 -3.030931120E+01  4.530032557E+01  5.109991400E-04  0.00000E+00  9.000E+00
      21     1     1     2   511   501  2.847723296E+01  4.689475880E+00  1.293678617E+01  3.162758950E+01  3.167811289E-07  0.00000E+00  9.000E+00
</event>
<event>
      6  10011  1.00000E+00  8.53340E+00 -1.00000E+00  2.04008E-01
      21    -1     0     0   511   501  0.000000000E+00  0.000000000E+00  2.885306235E+02  2.885306235E+02  0.000000000E+00  0.00000E+00  9.000E+00
       2    -1     0     0   501     0  0.000000000E+00  0.000000000E+00 -2.573583546E+00  2.573583546E+00  0.000000000E+00  0.00000E+00  9.000E+00
      23     2     1     2     0     0  8.051180683E+00 -2.827980854E+00  1.100466803E+02  1.149869914E+02  3.223224127E+01  0.00000E+00  9.000E+00
      11     1     3     3     0     0 -9.583904763E+00 -7.957929367E+00  2.443160081E+01  2.742413150E+01  5.109994225E-04  0.00000E+00  9.000E+00
     -11     1     3     3     0     0  1.763508545E+01  5.129948513E+00  8.561507946E+01  8.756285994E+01  5.109966606E-04  0.00000E+00  9.000E+00
       2     1     1     2   511     0 -8.051180683E+00  2.827980854E+00  1.759103597E+02  1.761172156E+02  2.190014490E-07  0.00000E+00  9.000E+00
</event>
<event>
      6  10011  1.00000E+00  1.37001E+01 -1.00000E+00  1.81125E-01
       2    -1     0     0   501     0  0.000000000E+00  0.000000000E+00  5.923862254E+01  5.923862254E+01  0.000000000E+00  0.00000E+00  9.000E+00
      21    -1     0     0   511   501  0.000000000E+00  0.000000000E+00 -1.288599905E+02  1.288599905E+02  0.000000000E+00  0.00000E+00  9.000E+00
      23     2     1     2     0     0  6.074450656E+00 -1.227980555E+01  2.352412357E+01  9.395098871E+01  8.992058338E+01  0.00000E+00  9.000E+00
      11     1     3     3     0     0  1.981498351E+01  2.236482300E+01  4.263800045E+01  5.206551605E+01  5.109991450E-04  0.00000E+00  9.000E+00
     -11     1     3     3     0     0 -1.374053285E+01 -3.464462855E+01 -1.911387688E+01  4.188547266E+01  5.109986702E-04  0.00000E+00  9.000E+00
       2     1     1     2   511     0 -6.074450656E+00  1.227980555E+01 -9.314549154E+01  9.414762434E+01  8.734673792E-07  0.00000E+00  9.000E+00
</event>
<event>
      6  10011  1.00000E+00  7.51203E+00 -1.00000E+00  2.11241E-01
      -2    -1     0     0     0   511  0.000000000E+00  0.000000000E+00  9.261758688E+00  9.261758688E+00  0.000000000E+00  0.00000E+00  9.000E+00
       2    -1     0     0   501     0  0.000000000E+00  0.000000000E+00 -4.638835600E+01  4.638835600E+01  0.000000000E+00  0.00000E+00  9.000E+00
      23     2     1     2     0     0  6.055653738E+00 -4.445187879E+00 -3.770342346E+01  4.811596803E+01  2.893384871E+01  0.00000E+00  9.000E+00
      11     1     3     3     0     0 -4.611113273E+00 -1.450768281E+01 -1.969524106E+01  2.489252391E+01  5.109989937E-04  0.00000E+00  9.000E+00
     -11     1     3     3     0     0  1.066676701E+01  1.006249494E+01 -1.800818240E+01  2.322344411E+01  5.109989305E-04  0.00000E+00  9.000E+00
      21     1     1     2   501   511 -6.055653738E+00  4.445187879E+00  5.768261486E-01  7.534146659E+00  1.152316468E-07  0.00000E+00  9.000E+00
</event>
<event>
      6  10011  1.00000E+00  8.66330E+00 -1.00000E+00  2.03185E-01
       1    -1     0     0   501     0  0.000000000E+00  0.000000000E+00  1.078450856E+03  1.078450856E+03  0.000000000E+00  0.00000E+00  9.000E+00
      -1    -1     0     0     0   511  0.000000000E+00  0.000000000E+00 -2.506637385E+00  2.506637385E+00  0.000000000E+00  0.00000E+00  9.000E+00
      23     2     1     2     0     0 -6.376654141E+00  5.864381707E+00  1.035294439E+03  1.039394803E+03  9.182552671E+01  0.00000E+00  9.000E+00
      11     1     3     3     0     0  2.843747346E+01  2.027581264E+01  1.851193469E+02  1.883851668E+02  5.109691948E-04  0.00000E+00  9.000E+00
     -11     1     3     3     0     0 -3.481412760E+01 -1.441143093E+01  8.501750925E+02  8.510096361E+02  5.109840807E-04  0.00000E+00  9.000E+00
      21     1     1     2   501   511  6.376654141E+00 -5.864381707E+00  4.064977967E+01  4.156269094E+01  9.969311168E-07  0.00000E+00  9.000E+00
</event>
<event>
      6  10011  1.00000E+00  1.00016E+01 -1.00000E+00  1.95691E-01
      -1    -1     0     0     0   501  0.000000000E+00  0.000000000E+00  2.246093190E+02  2.246093190E+02  0.000000000E+00  0.00000E+00  9.000E+00
      21    -1     0     0   501   511  0.000000000E+00  0.000000000E+00 -1.247274952E+01  1.247274952E+01  0.000000000E+00  0.00000E+00  9.000E+00
      23     2     1     2     0     0  3.178604825E+00 -9.483057994E+00  2.065527413E+02  2.256273291E+02  9.024203442E+01  0.00000E+00  9.000E+00
      11     1     3     3     0     0  2.642895709E+01 -1.154304797E+01  1.471888913E+01  3.237865696E+01  5.110013369E-04  0.00000E+00  9.000E+00
     -11     1     3     3     0     0 -2.325035226E+01  2.059989979E+00  1.918338522E+02  1.932486722E+02  5.109875014E-04  0.00000E+00  9.000E+00
      -1     1     1     2     0   511 -3.178604825E+00  9.483057994E+00  5.583828124E+00  1.145473937E+01  1.045987618E-07  0.00000E+00  9.000E+00
</event>
<event>
      6  10011  1.00000E+00  8.98765E-01 -1.00000E+00  7.46660E-01
       2    -1     0     0   501     0  0.000000000E+00  0.000000000E+00  3.223257017E+02  3.223257017E+02  0.000000000E+00  0.00000E+00  9.000E+00
      -2    -1     0     0     0   511  0.000000000E+00  0.000000000E+00 -5.707541816E-01  5.707541816E-01  0.000000000E+00  0.00000E+00  9.000E+00
      23     2     1     2     0     0  8.754817972E-01 -2.032498611E-01  3.165312203E+02  3.175959743E+02  2.596886005E+01  0.00000E+00  9.000E+00
      11     1     3     3     0     0  3.750906793E+00 -8.240968917E+00  2.772528440E+02  2.774006532E+02  5.109975826E-04  0.00000E+00  9.000E+00
     -11     1     3     3     0     0 -2.875424996E+00  8.037719055E+00  3.927837626E+01  4.019532110E+01  5.110012663E-04  0.00000E+00  9.000E+00
      21     1     1     2   501   511 -8.754817972E-01  2.032498611E-01  5.223727273E+00  5.300481630E+00  9.641775307E-08  0.00000E+00  9.000E+00
</event>
<event>
      6  10011  1.00000E+00  6.62903E+00 -1.00000E+00  2.18877E-01
       2    -1     0     0   501     0  0.000000000E+00  0.000000000E+00  7.544285009E+01  7.544285009E+01  0.000000000E+00  0.00000E+00  9.000E+00
      -2    -1     0     0     0   511  0.000000000E+00  0.000000000E+00 -1.031276843E+01  1.031276843E+01  0.000000000E+00  0.00000E+00  9.000E+00
      23     2     1     2     0     0 -1.016478278E+00  6.550635902E+00  6.445033815E+01  7.909182756E+01  4.536217631E+01  0.00000E+00  9.000E+00
      11     1     3     3     0     0  9.096225117E+00  2.628994393E+00  6.723108982E+01  6.789456798E+01  5.110025046E-04  0.00000E+00  9.000E+00
     -11     1     3     3     0     0 -1.011270339E+01  3.921641509E+00 -2.780751662E+00  1.119725958E+01  5.109989317E-04  0.00000E+00  9.000E+00
      21     1     1     2   501   511  1.016478278E+00 -6.550635902E+00  6.797435034E-01  6.663790966E+00  5.006481486E-08  0.00000E+00  9.000E+00
</event>
<event>
      6  10011  1.00000E+00  1.21388E+00 -1.00000E+00  5.31367E-01
      -1    -1     0     0     0   501  0.000000000E+00  0.000000000E+00  5.682756863E-01  5.682756863E-01  0.000000000E+00  0.00000E+00  9.000E+00
       1    -1     0     0   511     0  0.000000000E+00  0.000000000E+00 -2.562510519E+02  2.562510519E+02  0.000000000E+00  0.00000E+00  9.000E+00
      23     2     1     2     0     0 -1.174342119E+00  3.072726751E-01 -1.986371440E+02  1.997607817E+02  2.112300787E+01  0.00000E+00  9.000E+00
      11     1     3     3     0     0 -7.019868151E+00 -3.956927232E+00 -1.710762855E+02  1.712659665E+02  5.110016099E-04  0.00000E+00  9.000E+00
     -11     1     3     3     0     0  5.845526032E+00  4.264199908E+00 -2.756085844E+01  2.849481521E+01  5.109977562E-04  0.00000E+00  9.000E+00
      21     1     1     2   511   501  1.174342119E+00 -3.072726751E-01 -5.704563228E+01  5.705854588E+01  2.908590629E-07  0.00000E+00  9.000E+00
</event>
<event>
      6  10011  1.00000E+00  3.70336E+00 -1.00000E+00  2.71497E-01
      -2    -1     0     0     0   501  0.000000000E+00  0.000000000E+00  5.853167588E+01  5.853167588E+01  0.000000000E+00  0.00000E+00  9.000E+00
      21    -1     0     0   501   511  0.000000000E+00  0.000000000E+00 -9.767634357E+00  9.767634357E+00  0.000000000E+00  0.00000E+00  9.000E+00
      23     2     1     2     0     0  2.798272082E+00 -2.425811686E+00  5.323615857E+01  6.249287245E+01  3.252008054E+01  0.00000E+00  9.000E+00
      11     1     3     3     0     0 -5.512803814E+00 -1.568539171E+01  2.221001898E+01  2.774360219E+01  5.109986817E-04  0.00000E+00  9.000E+00
     -11     1     3     3     0     0  8.311075896E+00  1.325958003E+01  3.102613959E+01  3.474927026E+01  5.109985151E-04  0.00000E+00  9.000E+00
      -2     1     1     2     0   511 -2.798272082E+00  2.425811686E+00 -4.472117046E+00  5.806437794E+00  8.271486801E-08  0.00000E+00  9.000E+00
</event>
<event>
      6  10011  1.00000E+00  3.47091E+00 -1.00000E+00  2.78766E-01
       1    -1     0     0   511     0  0.000000000E+00  0.000000000E+00  4.324649857E+01  4.324649857E+01  0.000000000E+00  0.00000E+00  9.000E+00
      -1    -1     0     0     0   501  0.000000000E+00  0.000000000E+00 -1.183255145E+01  1.183255145E+01  0.000000000E+00  0.00000E+00  9.000E+00
      23     2     1     2     0     0 -2.731544537E+00 -2.141460828E+00  2.668993199E+01  4.921701035E+01  4.120575746E+01  0.00000E+00  9.000E+00
      11     1     3     3     0     0  9.854673045E+00 -1.557400837E+01  2.171317524E+00  1.855744965E+01  5.109989669E-04  0.00000E+00  9.000E+00
     -11     1     3     3     0     0 -1.258621758E+01  1.343254754E+01  2.451861447E+01  3.065956070E+01  5.109989293E-04  0.00000E+00  9.000E+00
      21     1     1     2   511   501  2.731544537E+00  2.141460828E+00  4.724015137E+00  5.862039667E+00  9.767793568E-09  0.00000E+00  9.000E+00
</event>
<event>
      6  10011  1.00000E+00  1.66221E+00 -1.00000E+00  4.04987E-01
       2    -1     0     0   501     0  0.000000000E+00  0.000000000E+00  2.767121715E+02  2.767121715E+02  0.000000000E+00  0.00000E+00  9.000E+00
      21    -1     0     0   511   501  0.000000000E+00  0.000000000E+00 -8.840636112E+00  8.840636112E+00  0.000000000E+00  0.00000E+00  9.000E+00
      23     2     1     2     0     0 -1.163400407E+00  1.187200718E+00  2.690352149E+02  2.835237448E+02  8.945951080E+01  0.00000E+00  9.000E+00
      11     1     3     3     0     0  2.834854096E+01 -4.190504636E+00  2.402364877E+02  2.419396002E+02  5.110246063E-04  0.00000E+00  9.000E+00
     -11     1     3     3     0     0 -2.951194136E+01  5.377705354E+00  2.879872718E+01  4.158414464E+01  5.109980058E-04  0.00000E+00  9.000E+00
       2     1     1     2   511     0  1.163400407E+00 -1.187200718E+00 -1.163679475E+00  2.029062831E+00  1.075254162E-07  0.00000E+00  9.000E+00
</event>
<event>
      6  10011  1.00000E+00  5.10731E+00 -1.00000E+00  2.36829E-01
      21    -1     0     0   511   501  0.000000000E+00  0.000000000E+00  2.123339940E+01  2.123339940E+01  0.000000000E+00  0.00000E+00  9.000E+00
       2    -1     0     0   501     0  0.000000000E+00  0.000000000E+00 -1.211304280E+01  1.211304280E+01  0.000000000E+00  0.00000E+00  9.000E+00
      23     2     1     2     0     0  7.191248636E-01 -5.056429147E+00  5.476720448E+00  2.707263150E+01  2.601630822E+01  0.00000E+00  9.000E+00
      11     1     3     3     0     0 -1.120658493E+01 -2.549377550E+00  8.761090369E+00  1.445142126E+01  5.109989121E-04  0.00000E+00  9.000E+00
     -11     1     3     3     0     0  1.192570980E+01 -2.507051598E+00 -3.284369921E+00  1.262121024E+01  5.109988828E-04  0.00000E+00  9.000E+00
       2     1     1     2   511     0 -7.191248636E-01  5.056429147E+00  3.643636148E+00  6.273810698E+00  9.724185142E-08  0.00000E+00  9.000E+00
</event>
<event>
      6  10011  1.00000E+00  4.03408E+00 -1.00000E+00  2.62498E-01
       2    -1     0     0   501     0  0.000000000E+00  0.000000000E+00  4.279959752E-01  4.279959752E-01  0.000000000E+00  0.00000E+00  9.000E+00
      -2    -1     0     0     0   511  0.000000000E+00  0.000000000E+00 -3.565256596E+02  3.565256596E+02  0.000000000E+00  0.00000E+00  9.000E+00
      23     2     1     2     0     0  4.020195908E+00 -3.344018534E-01 -2.311246902E+02  2.319155898E+02  1.870680583E+01  0.00000E+00  9.000E+00
      11     1     3     3     0     0 -5.680118607E+00  3.703148182E+00 -4.645647844E+01  4.694871077E+01  5.110010013E-04  0.00000E+00  9.000E+00
     -11     1     3     3     0     0  9.700314515E+00 -4.037550035E+00 -1.846682118E+02  1.849668791E+02  5.110045455E-04  0.00000E+00  9.000E+00
      21     1     1     2   501   511 -4.020195908E+00  3.344018534E-01 -1.249729734E+02  1.250380658E+02  8.591136518E-07  0.00000E+00  9.000E+00
</event>
<event>
      6  10011  1.00000E+00  3.92129E+00 -1.00000E+00  2.65410E-01
      21    -1     0     0   511   501  0.000000000E+00  0.000000000E+00  1.487226648E+02  1.487226648E+02  0.000000000E+00  0.00000E+00  9.000E+00
       2    -1     0     0   501     0  0.000000000E+00  0.000000000E+00 -2.779340418E+00  2.779340418E+00  0.000000000E+00  0.00000E+00  9.000E+00
      23     2     1     2     0     0  2.302675145E+00  3.173993437E+00  1.253108010E+02  1.305001584E+02  3.622316879E+01  0.00000E+00  9.000E+00
      11     1     3     3     0     0 -1.813687202E+00 -3.759561463E+00 -6.992841128E-01  4.232347126E+00  5.109988564E-04  0.00000E+00  9.000E+00
     -11     1     3     3     0     0  4.116362347E+00  6.933554900E+00  1.260100851E+02  1.262678113E+02  5.109997909E-04  0.00000E+00  9.000E+00
       2     1     1     2   511     0 -2.302675145E+00 -3.173993437E+00  2.063252338E+01  2.100184678E+01  2.034295044E-07  0.00000E+00  9.000E+00
</event>
<event>
      6  10011  1.00000E+00  5.33629E+00 -1.00000E+00  2.33596E-01
       1    -1     0     0   511     0  0.000000000E+00  0.000000000E+00  1.516019976E+00  1.516019976E+00  0.000000000E+00  0.00000E+00  9.000E+00
      -1    -1     0     0     0   501  0.000000000E+00  0.000000000E+00 -1.454309005E+02  1.454309005E+02  0.000000000E+00  0.00000E+00  9.000E+00
      23     2     1     2     0     0  7.199313254E-01  5.287498805E+00 -1.276027182E+02  1.297840949E+02  2.308639495E+01  0.00000E+00  9.000E+00
      11     1     3     3     0     0 -2.394951133E+00 -8.544684970E+00 -3.527696579E+01  3.637597762E+01  5.110007241E-04  0.00000E+00  9.000E+00
     -11     1     3     3     0     0  3.114882459E+00  1.383218377E+01 -9.232575245E+01  9.340811724E+01  5.110033767E-04  0.00000E+00  9.000E+00
      21     1     1     2   511   501 -7.199313254E-01 -5.287498805E+00 -1.631216227E+01  1.716282561E+01  2.971371502E-07  0.00000E+00  9.000E+00
</event>
<event>
      6  10011  1.00000E+00  6.03549E+00 -1.00000E+00  2.24997E-01
       2    -1     0     0   501     0  0.000000000E+00  0.000000000E+00  1.250619308E+03  1.250619308E+03  0.000000000E+00  0.00000E+00  9.000E+00
      21    -1     0     0   511   501  0.000000000E+00  0.000000000E+00 -6.118942486E+00  6.118942486E+00  0.000000000E+00  0.00000E+00  9.000E+00
      23     2     1     2     0     0  9.119259250E-02 -6.034797624E+00  1.246886160E+03  1.250248326E+03  9.142950296E+01  0.00000E+00  9.000E+00
      11     1     3     3     0     0 -4.242425702E+00 -4.862925278E+01  6.655557771E+02  6.673434610E+02  5.110312734E-04  0.00000E+00  9.000E+00
     -11     1     3     3     0     0  4.333618295E+00  4.259445516E+01  5.813303831E+02  5.829048655E+02  5.110016568E-04  0.00000E+00  9.000E+00
       2     1     1     2   511     0 -9.119259250E-02  6.034797624E+00 -2.385794698E+00  6.489924098E+00  5.150794829E-07  0.00000E+00  9.000E+00
</event>
<event>
      6  10011  1.00000E+00  2.96576E+00 -1.00000E+00  2.98248E-01
       2    -1     0     0   511     0  0.000000000E+00  0.000000000E+00  2.303902630E+01  2.303902630E+01  0.000000000E+00  0.00000E+00  9.000E+00
      -2    -1     0     0     0   501  0.000000000E+00  0.000000000E+00 -8.432776479E+00  8.432776479E+00  0.000000000E+00  0.00000E+00  9.000E+00
      23     2     1     2     0     0  2.937569101E+00 -4.079280413E-01  1.295330420E+01  2.807651977E+01  2.473271427E+01  0.00000E+00  9.000E+00
      11     1     3     3     0     0  2.107972910E-02  1.183014708E+01  3.491042633E+00  1.233451268E+01  5.109990227E-04  0.00000E+00  9.000E+00
     -11     1     3     3     0     0  2.916489372E+00 -1.223807512E+01  9.462261565E+00  1.574200708E+01  5.109989649E-04  0.00000E+00  9.000E+00
      21     1     1     2   511   501 -2.937569101E+00  4.079280413E-01  1.652945626E+00  3.395283015E+00  1.923355873E-08  0.00000E+00  9.000E+00
</event>
<event>
      6  10011  1.00000E+00  5.80766E+01 -1.00000E+00  1.35437E-01
       1    -1     0     0   501     0  0.000000000E+00  0.000000000E+00  2.679773507E+02  2.679773507E+02  0.000000000E+00  0.00000E+00  9.000E+00
      21    -1     0     0   511   501  0.000000000E+00  0.000000000E+00 -5.384227458E+01  5.384227458E+01  0.000000000E+00  0.00000E+00  9.000E+00
      23     2     1     2     0     0 -5.799976083E+01  2.987367002E+00  2.363683262E+02  2.596326971E+02  9.036733472E+01  0.00000E+00  9.000E+00
      11     1     3     3     0     0 -6.147140264E+01 -3.399780805E+01  1.518686574E+02  1.673280413E+02  5.110049088E-04  0.00000E+00  9.000E+00
     -11     1     3     3     0     0  3.471641814E+00  3.698517505E+01  8.449966880E+01  9.230465588E+01  5.109997210E-04  0.00000E+00  9.000E+00
       1     1     1     2   511     0  5.799976083E+01 -2.987367002E+00 -2.223325010E+01  6.218692811E+01  8.963485077E-07  0.00000E+00  9.000E+00
</event>
<event>
      6  10011  1.00000E+00  1.42469E+00 -1.00000E+00  4.62608E-01
       2    -1     0     0   501     0  0.000000000E+00  0.000000000E+00  3.941940221E+01  3.941940221E+01  0.000000000E+00  0.00000E+00  9.000E+00
      -2    -1     0     0     0   511  0.000000000E+00  0.000000000E+00 -6.778452404E+00  6.778452404E+00  0.000000000E+00  0.00000E+00  9.000E+00
      23     2     1     2     0     0  8.831331250E-01 -1.117955105E+00  3.647403085E+01  4.210856884E+01  2.099397285E+01  0.00000E+00  9.000E+00
      11     1     3     3     0     0 -4.160955495E+00 -2.008815826E+00  3.669200295E+01  3.698177892E+01  5.109989811E-04  0.00000E+00  9.000E+00
     -11     1     3     3     0     0  5.044088620E+00  8.908607211E-01 -2.179720957E-01  5.126789924E+00  5.109989150E-04  0.00000E+00  9.000E+00
      21     1     1     2   501   511 -8.831331250E-01  1.117955105E+00 -3.833081050E+00  4.089285765E+00  1.252966379E-08  0.00000E+00  9.000E+00
</event>
<event>
      6  10011  1.00000E+00  5.69612E+00 -1.00000E+00  2.28954E-01
       2    -1     0     0   511     0  0.000000000E+00  0.000000000E+00  2.889903263E+01  2.889903263E+01  0.000000000E+00  0.00000E+00  9.000E+00
      -2    -1     0     0     0   501  0.000000000E+00  0.000000000E+00 -3.075161104E+01  3.075161104E+01  0.000000000E+00  0.00000E+00  9.000E+00
      23     2     1     2     0     0 -4.660579498E+00 -3.274862655E+00 -1.473181193E+01  4.556801669E+01  4.274309459E+01  0.00000E+00  9.000E+00
      11     1     3     3     0     0 -8.121869861E+00 -2.182814914E+01 -1.285293655E+01  2.660133160E+01  5.109991807E-04  0.00000E+00  9.000E+00
     -11     1     3     3     0     0  3.461290363E+00  1.855328648E+01 -1.878875381E+00  1.896668509E+01  5.109987633E-04  0.00000E+00  9.000E+00
      21     1     1     2   511   501  4.660579498E+00  3.274862655E+00  1.287923352E+01  1.408262698E+01  2.061738685E-07  0.00000E+00  9.000E+00
</event>
<event>
      6  10011  1.00000E+00  1.96950E+00 -1.00000E+00  3.65996E-01
       2    -1     0     0   501     0  0.000000000E+00  0.000000000E+00  1.039716784E+01  1.039716784E+01  0.000000000E+00  0.00000E+00  9.000E+00
      -2    -1     0     0     0   511  0.000000000E+00  0.000000000E+00 -3.991109017E+01  3.991109017E+01  0.000000000E+00  0.00000E+00  9.000E+00
      23     2     1     2     0     0  7.580786554E-01  1.817753488E+00 -2.683340276E+01  4.698198440E+01  3.851488599E+01  0.00000E+00  9.000E+00
      11     1     3     3     0     0 -1.354439092E+01  7.510700706E+00 -2.751364977E+01  3.157312266E+01  5.109988794E-04  0.00000E+00  9.000E+00
     -11     1     3     3     0     0  1.430246957E+01 -5.692947217E+00  6.802470104E-01  1.540886174E+01  5.109988562E-04  0.00000E+00  9.000E+00
      21     1     1     2   501   511 -7.580786554E-01 -1.817753488E+00 -2.680519573E+00  3.326273617E+00  4.267856195E-09  0.00000E+00  9.000E+00
</event>
<event>
      6  10011  1.00000E+00  2.73700E+01 -1.00000E+00  1.55824E-01
       2    -1     0     0   511     0  0.000000000E+00  0.000000000E+00  8.277519953E+02  8.277519953E+02  0.000000000E+00  0.00000E+00  9.000E+00
      -2    -1     0     0     0   501  0.000000000E+00  0.000000000E+00 -4.410018603E+00  4.410018603E+00  0.000000000E+00  0.00000E+00  9.000E+00
      23     2     1     2     0     0  1.891681440E+01  1.978053444E+01  5.487898836E+02  5.562490435E+02  8.656527392E+01  0.00000E+00  9.000E+00
      11     1     3     3     0     0 -7.458139761E+00  9.437046780E+00  7.408390244E+00  1.412678119E+01  5.109995829E-04  0.00000E+00  9.000E+00
     -11     1     3     3     0     0  2.637495416E+01  1.034348766E+01  5.413814934E+02  5.421222623E+02  5.110497933E-04  0.00000E+00  9.000E+00
      21     1     1     2   511   501 -1.891681440E+01 -1.978053444E+01  2.745520931E+02  2.759129704E+02  1.590450295E-06  0.00000E+00  9.000E+00
</event>
<event>
      5  10011  1.00000E+00  8.94427E-01 -1.00000E+00  7.38274E-01
       2    -1     0     0   501     0  0.000000000E+00  0.000000000E+00  1.367860746E+03  1.367860746E+03  0.000000000E+00  0.00000E+00  9.000E+00
      -2    -1     0     0     0   501  0.000000000E+00  0.000000000E+00 -1.059190623E-01  1.059190623E-01  0.000000000E+00  0.00000E+00  9.000E+00
      23     2     1     2     0     0  0.000000000E+00  0.000000000E+00  1.367754827E+03  1.367966665E+03  2.407343164E+01  0.00000E+00  9.000E+00
      11     1     3     3     0     0 -1.012291367E+01  5.910066496E-01  3.153486331E+02  3.155116212E+02  5.110288541E-04  0.00000E+00  9.000E+00
     -11     1     3     3     0     0  1.012291367E+01 -5.910066496E-01  1.052406194E+03  1.052455044E+03  5.110506553E-04  0.00000E+00  9.000E+00
</event>
<event>
      6  10011  1.00000E+00  2.21384E+00 -1.00000E+00  3.43475E-01
       2    -1     0     0   511     0  0.000000000E+00  0.000000000E+00  1.030209711E+02  1.030209711E+02  0.000000000E+00  0.00000E+00  9.000E+00
      -2    -1     0     0     0   501  0.000000000E+00  0.000000000E+00 -1.506024827E+00  1.506024827E+00  0.000000000E+00  0.00000E+00  9.000E+00
      23     2     1     2     0     0  1.692402467E+00  1.427180820E+00  7.866282099E+01  8.156788660E+01  2.146111942E+01  0.00000E+00  9.000E+00
      11     1     3     3     0     0  2.876277749E+00  1.098913264E+01  5.175904056E+01  5.299086987E+01  5.110001151E-04  0.00000E+00  9.000E+00
     -11     1     3     3     0     0 -1.183875282E+00 -9.561951822E+00  2.690378044E+01  2.857701673E+01  5.109990767E-04  0.00000E+00  9.000E+00
      21     1     1     2   511   501 -1.692402467E+00 -1.427180820E+00  2.285212527E+01  2.295910931E+01  1.521451612E-07  0.00000E+00  9.000E+00
</event>
<event>
      6  10011  1.00000E+00  1.56728E+00 -1.00000E+00  4.20696E-01
      -2    -1     0     0     0   501  0.000000000E+00  0.000000000E+00  3.684841072E+00  3.684841072E+00  0.000000000E+00  0.00000E+00  9.000E+00
       2    -1     0     0   511     0  0.000000000E+00  0.000000000E+00 -5.992834501E+02  5.992834501E+02  0.000000000E+00  0.00000E+00  9.000E+00
      23     2     1     2     0     0  1.220130793E+00 -9.836860258E-01 -5.836461740E+02  5.909135385E+02  9.237693043E+01  0.00000E+00  9.000E+00
      11     1     3     3     0     0 -1.683727361E+01 -3.118513870E+01 -4.829052579E+02  4.842039805E+02  5.108875822E-04  0.00000E+00  9.000E+00
     -11     1     3     3     0     0  1.805740441E+01  3.020145268E+01 -1.007409161E+02  1.067095580E+02  5.110062828E-04  0.00000E+00  9.000E+00
      21     1     1     2   511   501 -1.220130793E+00  9.836860258E-01 -1.195243503E+01  1.205475261E+01  1.613098017E-07  0.00000E+00  9.000E+00
</event>
<event>
      6  10011  1.00000E+00  4.93972E+00 -1.00000E+00  2.43501E-01
      -1    -1     0     0     0   501  0.000000000E+00  0.000000000E+00  3.026588238E+01  3.026588238E+01  0.000000000E+00  0.00000E+00  9.000E+00
       1    -1     0     0   511     0  0.000000000E+00  0.000000000E+00 -7.737846894E+01  7.737846894E+01  0.000000000E+00  0.00000E+00  9.000E+00
      23     2     1     2     0     0 -3.928220311E+00  2.994978134E+00 -4.049592990E+01  9.938717540E+01  9.062830400E+01  0.00000E+00  9.000E+00
      11     1     3     3     0     0  1.402520494E+01 -1.520026625E+01  2.300463770E+01  3.093489653E+01  5.109991394E-04  0.00000E+00  9.000E+00
     -11     1     3     3     0     0 -1.795342525E+01  1.819524438E+01 -6.350056760E+01  6.845227887E+01  5.109997205E-04  0.00000E+00  9.000E+00
      21     1     1     2   511   501  3.928220311E+00 -2.994978134E+00 -6.616656660E+00  8.257175921E+00  8.722669984E-08  0.00000E+00  9.000E+00
</event>
<event>
      6  10011  1.00000E+00  2.25483E+01 -1.00000E+00  1.62144E-01
      -1    -1     0     0     0   501  0.000000000E+00  0.000000000E+00  1.239714755E+02  1.239714755E+02  0.000000000E+00  0.00000E+00  9.000E+00
      21    -1     0     0   501   511  0.000000000E+00  0.000000000E+00 -2.195224753E+02  2.195224753E+02  0.000000000E+00  0.00000E+00  9.000E+00
      23     2     1     2     0     0  1.495570883E+00  2.249859811E+01  1.058879539E+02  1.407969461E+02  9.001720732E+01  0.00000E+00  9.000E+00
      11     1     3     3     0     0 -3.904308118E+01  7.131450116E+00  1.967714285E+01  4.429909389E+01  5.109985524E-04  0.00000E+00  9.000E+00
     -11     1     3     3     0     0  4.053865206E+01  1.536714800E+01  8.621081104E+01  9.649785225E+01  5.109985603E-04  0.00000E+00  9.000E+00
      -1     1     1     2     0   511 -1.495570883E+00 -2.249859811E+01 -2.014389537E+02  2.026970047E+02  2.544217821E-06  0.00000E+00  9.000E+00
</event>
<event>
      5  10011  1.00000E+00  8.94427E-01 -1.00000E+00  7.37246E-01
       2    -1     0     0   501     0  0.000000000E+00  0.000000000E+00  1.814209189E+03  1.814209189E+03  0.000000000E+00  0.00000E+00  9.000E+00
      -2    -1     0     0     0   501  0.000000000E+00  0.000000000E+00 -9.453223288E-02  9.453223288E-02  0.000000000E+00  0.00000E+00  9.000E+00
      23     2     1     2     0     0  0.000000000E+00  0.000000000E+00  1.814114657E+03  1.814303721E+03  2.619169682E+01  0.00000E+00  9.000E+00
      11     1     3     3     0     0 -4.267712580E+00  8.134357135E+00  1.553612456E+03  1.553639612E+03  5.107311070E-04  0.00000E+00  9.000E+00
     -11     1     3     3     0     0  4.267712580E+00 -8.134357135E+00  2.605022005E+02  2.606641087E+02  5.111605373E-04  0.00000E+00  9.000E+00
</event>
<event>
      6  10011  1.00000E+00  6.56182E+01 -1.00000E+00  1.32632E-01
      -1    -1     0     0     0   501  0.000000000E+00  0.000000000E+00  1.337280036E+02  1.337280036E+02  0.000000000E+00  0.00000E+00  9.000E+00
      21    -1     0     0   501   511  0.000000000E+00  0.000000000E+00 -7.417427925E+01  7.417427925E+01  0.000000000E+00  0.00000E+00  9.000E+00
      23     2     1     2     0     0 -6.283732607E+01 -1.890009135E+01 -9.218594957E+00  1.128476938E+02  9.134482196E+01  0.00000E+00  9.000E+00
      11     1     3     3     0     0 -6.181233576E+01  1.013006062E+01  2.545730086E+01  6.761255170E+01  5.109976152E-04  0.00000E+00  9.000E+00
     -11     1     3     3     0     0 -1.024990303E+00 -2.903015197E+01 -3.467589581E+01  4.523514208E+01  5.109993735E-04  0.00000E+00  9.000E+00
      -1     1     1     2     0   511  6.283732607E+01  1.890009135E+01  6.877231934E+01  9.505458909E+01  1.029151478E-06  0.00000E+00  9.000E+00
</event>
<event>
      6  10011  1.00000E+00  5.63103E+00 -1.00000E+00  2.29758E-01
      -4    -1     0     0     0   501  0.000000000E+00  0.000000000E+00  9.211604154E+00  9.211604154E+00  0.000000000E+00  0.00000E+00  9.000E+00
      21    -1     0     0   501   511  0.000000000E+00  0.000000000E+00 -5.139419556E+02  5.139419556E+02  0.000000000E+00  0.00000E+00  9.000E+00
      23     2     1     2     0     0 -5.519119462E+00  1.117076683E+00 -2.242659452E+02  2.426326306E+02  9.243197877E+01  0.00000E+00  9.000E+00
      11     1     3     3     0     0  3.128971048E+01  3.179520723E+01 -1.031829879E+02  1.124131228E+02  5.109963573E-04  0.00000E+00  9.000E+00
     -11     1     3     3     0     0 -3.680882994E+01 -3.067813055E+01 -1.210829573E+02  1.302195077E+02  5.109981892E-04  0.00000E+00  9.000E+00
      -4     1     1     2     0   511  5.519119462E+00 -1.117076683E+00 -2.804644063E+02  2.805209292E+02  9.348623241E-07  0.00000E+00  9.000E+00
</event>
<event>
      6  10011  1.00000E+00  3.30909E+01 -1.00000E+00  1.50106E-01
       2    -1     0     0   501     0  0.000000000E+00  0.000000000E+00  3.759140556E+02  3.759140556E+02  0.000000000E+00  0.00000E+00  9.000E+00
      21    -1     0     0   511   501  0.000000000E+00  0.000000000E+00 -3.010344336E+01  3.010344336E+01  0.000000000E+00  0.00000E+00  9.000E+00
      23     2     1     2     0     0 -3.211711655E+01  7.968630694E+00  3.582614562E+02  3.706617107E+02  8.912813548E+01  0.00000E+00  9.000E+00
      11     1     3     3     0     0 -2.087685644E+01 -2.156588531E+01  3.607439341E+01  4.692858835E+01  5.110044824E-04  0.00000E+00  9.000E+00
     -11     1     3     3     0     0 -1.124026011E+01  2.953451601E+01  3.221870628E+02  3.237331223E+02  5.110081156E-04  0.00000E+00  9.000E+00
       2     1     1     2   511     0  3.211711655E+01 -7.968630694E+00 -1.245084394E+01  3.535578828E+01  1.026025024E-06  0.00000E+00  9.000E+00
</event>
<event>
      6  10011  1.00000E+00  3.72193E+00 -1.00000E+00  2.70953E-01
      21    -1     0     0   511   501  0.000000000E+00  0.000000000E+00  5.022886914E-01  5.022886914E-01  0.000000000E+00  0.00000E+00  9.000E+00
       2    -1     0     0   501     0  0.000000000E+00  0.000000000E+00 -2.785367819E+02  2.785367819E+02  0.000000000E+00  0.00000E+00  9.000E+00
      23     2     1     2     0     0 -3.367878753E+00 -1.584340142E+00 -2.576994137E+02  2.583661850E+02  1.817264364E+01  0.00000E+00  9.000E+00
      11     1     3     3     0     0  4.378031205E+00  5.336141922E+00 -1.522620022E+02  1.524183679E+02  5.110074151E-04  0.00000E+00  9.000E+00
     -11     1     3     3     0     0 -7.745909958E+00 -6.920482064E+00 -1.054374115E+02  1.059478171E+02  5.109997935E-04  0.00000E+00  9.000E+00
       2     1     1     2   511     0  3.367878753E+00  1.584340142E+00 -2.033507943E+01  2.067288554E+01  1.707955209E-07  0.00000E+00  9.000E+00
</event>
<event>
      6  10011  1.00000E+00  9.07890E+00 -1.00000E+00  2.00675E-01
      -1    -1     0     0     0   511  0.000000000E+00  0.000000000E+00  4.454105491E+01  4.454105491E+01  0.000000000E+00  0.00000E+00  9.000E+00
       1    -1     0     0   501     0  0.000000000E+00  0.000000000E+00 -6.420536941E+01  6.420536941E+01  0.000000000E+00  0.00000E+00  9.000E+00
      23     2     1     2     0     0 -3.818643329E+00  8.236768685E+00 -2.601344657E+01  9.766771171E+01  9.370088641E+01  0.00000E+00  9.000E+00
      11     1     3     3     0     0 -3.859646448E+01  2.286670472E+00 -4.357519459E+01  5.825558786E+01  5.109988028E-04  0.00000E+00  9.000E+00
     -11     1     3     3     0     0  3.477782115E+01  5.950098213E+00  1.756174802E+01  3.941212386E+01  5.109994765E-04  0.00000E+00  9.000E+00
      21     1     1     2   501   511  3.818643329E+00 -8.236768685E+00  6.349132067E+00  1.107871262E+01  5.559925570E-08  0.00000E+00  9.000E+00
</event>
<event>
      6  10011  1.00000E+00  5.21501E+00 -1.00000E+00  2.35279E-01
      21    -1     0     0   511   501  0.000000000E+00  0.000000000E+00  1.867603033E-01  1.867603033E-01  0.000000000E+00  0.00000E+00  9.000E+00
       1    -1     0     0   501     0  0.000000000E+00  0.000000000E+00 -1.383120102E+03  1.383120102E+03  0.000000000E+00  0.00000E+00  9.000E+00
      23     2     1     2     0     0 -2.757332044E+00 -4.426448144E+00 -1.319415657E+03  1.319575452E+03  1.986209072E+01  0.00000E+00  9.000E+00
      11     1     3     3     0     0  7.635535538E+00  2.475973875E+00 -4.809506905E+02  4.810176696E+02  5.109327116E-04  0.00000E+00  9.000E+00
     -11     1     3     3     0     0 -1.039286758E+01 -6.902422018E+00 -8.384649664E+02  8.385577828E+02  5.106909825E-04  0.00000E+00  9.000E+00
       1     1     1     2   511     0  2.757332044E+00  4.426448144E+00 -6.351768500E+01  6.373141008E+01  1.389248612E-06  0.00000E+00  9.000E+00
</event>
<event>
      6  10011  1.00000E+00  1.41794E+01 -1.00000E+00  1.79668E-01
       2    -1     0     0   501     0  0.000000000E+00  0.000000000E+00  2.805137376E+01  2.805137376E+01  0.000000000E+00  0.00000E+00  9.000E+00
      21    -1     0     0   511   501  0.000000000E+00  0.000000000E+00 -1.915045451E+01  1.915045451E+01  0.000000000E+00  0.00000E+00  9.000E+00
      23     2     1     2     0     0 -1.273914184E+01 -6.226580055E+00  1.066491993E+01  3.291310080E+01  2.772139342E+01  0.00000E+00  9.000E+00
      11     1     3     3     0     0  8.755882113E+00 -2.498319131E+00  1.404270808E+00  9.212982515E+00  5.109988386E-04  0.00000E+00  9.000E+00
     -11     1     3     3     0     0 -2.149502395E+01 -3.728260924E+00  9.260649127E+00  2.370011829E+01  5.109988128E-04  0.00000E+00  9.000E+00
       2     1     1     2   511     0  1.273914184E+01  6.226580055E+00 -1.764000683E+00  1.428872746E+01  2.042820561E-07  0.00000E+00  9.000E+00
</event>
<event>
      6  10011  1.00000E+00  2.79393E+00 -1.00000E+00  3.06423E-01
      -1    -1     0     0     0   511  0.000000000E+00  0.000000000E+00  1.821266089E+02  1.821266089E+02  0.000000000E+00  0.00000E+00  9.000E+00
       1    -1     0     0   501     0  0.000000000E+00  0.000000000E+00 -1.007484120E+00  1.007484120E+00  0.000000000E+00  0.00000E+00  9.000E+00
      23     2     1     2     0     0 -2.387689772E+00 -1.450853072E+00  1.523757492E+02  1.542552483E+02  2.384337692E+01  0.00000E+00  9.000E+00
      11     1     3     3     0     0  8.699483938E+00 -1.412895580E+00  2.726306334E+01  2.865225851E+01  5.109977469E-04  0.00000E+00  9.000E+00
     -11     1     3     3     0     0 -1.108717371E+01 -3.795749235E-02  1.251126859E+02  1.256029898E+02  5.110015030E-04  0.00000E+00  9.000E+00
      21     1     1     2   501   511  2.387689772E+00  1.450853072E+00  2.874337549E+01  2.887884471E+01  3.017255177E-07  0.00000E+00  9.000E+00
</event>
<event>
      6  10011  1.00000E+00  5.13973E+00 -1.00000E+00  2.36357E-01
      21    -1     0     0   511   501  0.000000000E+00  0.000000000E+00  2.767787362E+00  2.767787362E+00  0.000000000E+00  0.00000E+00  9.000E+00
       2    -1     0     0   501     0  0.000000000E+00  0.000000000E+00 -5.027062915E+01  5.027062915E+01  0.000000000E+00  0.00000E+00  9.000E+00
      23     2     1     2     0     0  5.120021924E+00  4.496469113E-01 -4.239116907E+01  4.578955420E+01  1.653043411E+01  0.00000E+00  9.000E+00
      11     1     3     3     0     0  6.304889697E+00  3.947967345E-01 -4.362384635E+01  4.407887781E+01  5.109990825E-04  0.00000E+00  9.000E+00
     -11     1     3     3     0     0 -1.184867773E+00  5.485017682E-02  1.232677278E+00  1.710676390E+00  5.109988778E-04  0.00000E+00  9.000E+00
       2     1     1     2   511     0 -5.120021924E+00 -4.496469113E-01 -5.111672718E+00  7.248862312E+00  5.056661353E-08  0.00000E+00  9.000E+00
</event>
<event>
      6  10011  1.00000E+00  1.69751E+00 -1.00000E+00  3.99675E-01
      21    -1     0     0   511   501  0.000000000E+00  0.000000000E+00  3.589552270E+02  3.589552270E+02  0.000000000E+00  0.00000E+00  9.000E+00
       2    -1     0     0   501     0  0.000000000E+00  0.000000000E+00 -1.497297807E+00  1.497297807E+00  0.000000000E+00  0.00000E+00  9.000E+00
      23     2     1     2     0     0 -6.943781684E-01 -1.548995210E+00  1.381888584E+02  1.411768833E+02  2.884216095E+01  0.00000E+00  9.000E+00
      11     1     3     3     0     0 -1.302381440E+01 -7.653045148E+00  7.544366628E+01  7.694111790E+01  5.109959749E-04  0.00000E+00  9.000E+00
     -11     1     3     3     0     0  1.232943623E+01  6.104049939E+00  6.274519210E+01  6.423576540E+01  5.109969226E-04  0.00000E+00  9.000E+00
       2     1     1     2   511     0  6.943781684E-01  1.548995210E+00  2.192690708E+02  2.192756415E+02  1.693233575E-06  0.00000E+00  9.000E+00
</event>
<event>
      6  10011  1.00000E+00  2.30435E+00 -1.00000E+00  3.36424E-01
       2    -1     0     0   501     0  0.000000000E+00  0.000000000E+00  1.438205744E+01  1.438205744E+01  0.000000000E+00  0.00000E+00  9.000E+00
      -2    -1     0     0     0   511  0.000000000E+00  0.000000000E+00 -1.494483842E+01  1.494483842E+01  0.000000000E+00  0.00000E+00  9.000E+00
      23     2     1     2     0     0 -2.144591289E+00 -8.430725526E-01  4.239423847E+00  2.400043227E+01  2.351038050E+01  0.00000E+00  9.000E+00
      11     1     3     3     0     0  3.111364507E+00 -5.877300545E+00  1.177564043E+01  1.352364443E+01  5.109989050E-04  0.00000E+00  9.000E+00
     -11     1     3     3     0     0 -5.255955796E+00  5.034227993E+00 -7.536216582E+00  1.047678784E+01  5.109989143E-04  0.00000E+00  9.000E+00
      21     1     1     2   501   511  2.144591289E+00  8.430725526E-01 -4.802204833E+00  5.326463590E+00  7.290536832E-08  0.00000E+00  9.000E+00
</event>
<event>
      6  10011  1.00000E+00  1.61202E+00 -1.00000E+00  4.13015E-01
      -2    -1     0     0     0   511  0.000000000E+00  0.000000000E+00  1.386461363E+00  1.386461363E+00  0.000000000E+00  0.00000E+00  9.000E+00
       2    -1     0     0   501     0  0.000000000E+00  0.000000000E+00 -1.765289198E+03  1.765289198E+03  0.000000000E+00  0.00000E+00  9.000E+00
      23     2     1     2     0     0 -1.388441652E+00  8.190517448E-01 -1.758930086E+03  1.761448244E+03  9.413963391E+01  0.00000E+00  9.000E+00
      11     1     3     3     0     0  2.234229133E+01 -3.801938214E+01 -1.137051143E+03  1.137905950E+03  5.108715460E-04  0.00000E+00  9.000E+00
     -11     1     3     3     0     0 -2.373073298E+01  3.883843388E+01 -6.218789432E+02  6.235422933E+02  5.109250072E-04  0.00000E+00  9.000E+00
      21     1     1     2   501   511  1.388441652E+00 -8.190517448E-01 -4.972651128E+00  5.227415731E+00  2.913417575E-07  0.00000E+00  9.000E+00
</event>
<event>
      6  10011  1.00000E+00  3.42761E+01 -1.00000E+00  1.49093E-01
       2    -1     0     0   501     0  0.000000000E+00  0.000000000E+00  1.057990482E+03  1.057990482E+03  0.000000000E+00  0.00000E+00  9.000E+00
      21    -1     0     0   511   501  0.000000000E+00  0.000000000E+00 -5.523269450E+00  5.523269450E+00  0.000000000E+00  0.00000E+00  9.000E+00
      23     2     1     2     0     0 -3.404746615E+01  3.952473942E+00  9.603409214E+02  9.652177418E+02  9.064078368E+01  0.00000E+00  9.000E+00
      11     1     3     3     0     0 -3.017852759E+01 -1.327610019E+01  9.261479797E+02  9.267346323E+02  5.109127133E-04  0.00000E+00  9.000E+00
     -11     1     3     3     0     0 -3.868938560E+00  1.722857413E+01  3.419294173E+01  3.848310949E+01  5.109884798E-04  0.00000E+00  9.000E+00
       2     1     1     2   511     0  3.404746615E+01 -3.952473942E+00  9.212629109E+01  9.829600964E+01  1.412705528E-06  0.00000E+00  9.000E+00
</event>
<event>
      6  10011  1.00000E+00  7.30810E+00 -1.00000E+00  2.12874E-01
      -2    -1     0     0     0   501  0.000000000E+00  0.000000000E+00  5.146938084E+00  5.146938084E+00  0.000000000E+00  0.00000E+00  9.000E+00
       2    -1     0     0   511     0  0.000000000E+00  0.000000000E+00 -5.453463587E+02  5.453463587E+02  0.000000000E+00  0.00000E+00  9.000E+00
      23     2     1     2     0     0  4.435242567E+00 -5.808350603E+00 -4.152883886E+02  4.253686620E+02  9.176407022E+01  0.00000E+00  9.000E+00
      11     1     3     3     0     0 -2.774785597E+01  2.676872994E+01 -2.776055371E+02  2.802701244E+02  5.110077193E-04  0.00000E+00  9.000E+00
     -11     1     3     3     0     0  3.218309853E+01 -3.257708055E+01 -1.376828516E+02  1.450985376E+02  5.109918763E-04  0.00000E+00  9.000E+00
      21     1     1     2   511   501 -4.435242567E+00  5.808350603E+00 -1.249110320E+02  1.251246348E+02  8.090658164E-07  0.00000E+00  9.000E+00
</event>
<event>
      6  10011  1.00000E+00  3.85555E+00 -1.00000E+00  2.67180E-01
       2    -1     0     0   501     0  0.000000000E+00  0.000000000E+00  1.346792809E+03  1.346792809E+03  0.000000000E+00  0.00000E+00  9.000E+00
      -2    -1     0     0     0   511  0.000000000E+00  0.000000000E+00 -1.049742759E-01  1.049742759E-01  0.000000000E+00  0.00000E+00  9.000E+00
      23     2     1     2     0     0  1.323474541E+00 -3.621286966E+00  1.231174734E+03  1.231320356E+03  1.853989353E+01  0.00000E+00  9.000E+00
      11     1     3     3     0     0  3.256335158E+00 -1.047811208E+01  5.575864624E+02  5.576944124E+02  5.108217235E-04  0.00000E+00  9.000E+00
     -11     1     3     3     0     0 -1.932860617E+00  6.856825113E+00  6.735882714E+02  6.736259432E+02  5.107456591E-04  0.00000E+00  9.000E+00
      21     1     1     2   501   511 -1.323474541E+00  3.621286966E+00  1.155131010E+02  1.155774277E+02  1.131311232E-06  0.00000E+00  9.000E+00
</event>
<event>
      6  10011  1.00000E+00  1.61015E+01 -1.00000E+00  1.74487E-01
      21    -1     0     0   501   511  0.000000000E+00  0.000000000E+00  2.343782666E+00  2.343782666E+00  0.000000000E+00  0.00000E+00  9.000E+00
      -2    -1     0     0     0   501  0.000000000E+00  0.000000000E+00 -3.164952004E+02  3.164952004E+02  0.000000000E+00  0.00000E+00  9.000E+00
      23     2     1     2     0     0 -9.172983140E+00  1.323310943E+01 -2.116917591E+02  2.151218657E+02  3.470961523E+01  0.00000E+00  9.000E+00
      11     1     3     3     0     0 -1.271152714E+01 -6.846599671E+00 -1.348634144E+02  1.356340643E+02  5.109807121E-04  0.00000E+00  9.000E+00
     -11     1     3     3     0     0  3.538543999E+00  2.007970911E+01 -7.682834474E+01  7.948780138E+01  5.109973484E-04  0.00000E+00  9.000E+00
      -2     1     1     2     0   511  9.172983140E+00 -1.323310943E+01 -1.024596586E+02  1.037171174E+02  7.232821643E-07  0.00000E+00  9.000E+00
</event>
<event>
      6  10011  1.00000E+00  1.87180E+00 -1.00000E+00  3.76818E-01
      -2    -1     0     0     0   501  0.000000000E+00  0.000000000E+00  3.382562068E+00  3.382562068E+00  0.000000000E+00  0.00000E+00  9.000E+00
       2    -1     0     0   511     0  0.000000000E+00  0.000000000E+00 -1.113490326E+03  1.113490326E+03  0.000000000E+00  0.00000E+00  9.000E+00
      23     2     1     2     0     0  8.763847733E-01 -1.653965620E+00 -6.107105557E+02  6.174721720E+02  9.110980549E+01  0.00000E+00  9.000E+00
      11     1     3     3     0     0 -1.485316231E+00 -1.108015842E+01 -6.007770029E+00  1.269131104E+01  5.109982583E-04  0.00000E+00  9.000E+00
     -11     1     3     3     0     0  2.361701005E+00  9.426192802E+00 -6.047027857E+02  6.047808609E+02  5.110312456E-04  0.00000E+00  9.000E+00
      21     1     1     2   511   501 -8.763847733E-01  1.653965620E+00 -4.993972080E+02  4.994007159E+02  7.243374601E-06  0.00000E+00  9.000E+00
</event>
<event>
      6  10011  1.00000E+00  1.58531E+01 -1.00000E+00  1.75104E-01
      -1    -1     0     0     0   501  0.000000000E+00  0.000000000E+00  6.945848201E+01  6.945848201E+01  0.000000000E+00  0.00000E+00  9.000E+00
      21    -1     0     0   501   511  0.000000000E+00  0.000000000E+00 -6.920223526E+00  6.920223526E+00  0.000000000E+00  0.00000E+00  9.000E+00
      23     2     1     2     0     0  1.384490467E+01  7.722653006E+00  3.710179424E+01  4.640647726E+01  2.292808848E+01  0.00000E+00  9.000E+00
      11     1     3     3     0     0  6.494761497E+00  1.404576618E+01  1.226982053E+01  1.974877137E+01  5.109990160E-04  0.00000E+00  9.000E+00
     -11     1     3     3     0     0  7.350143169E+00 -6.323113173E+00  2.483197371E+01  2.665770589E+01  5.109990278E-04  0.00000E+00  9.000E+00
      -1     1     1     2     0   511 -1.384490467E+01 -7.722653006E+00  2.543646425E+01  2.997222828E+01  2.898074737E-07  0.00000E+00  9.000E+00
</event>
<event>
      6  10011  1.00000E+00  7.96341E+00 -1.00000E+00  2.07865E-01
      -4    -1     0     0     0   501  0.000000000E+00  0.000000000E+00  9.565739127E+01  9.565739127E+01  0.000000000E+00  0.00000E+00  9.000E+00
      21    -1     0     0   501   511  0.000000000E+00  0.000000000E+00 -2.683472649E+01  2.683472649E+01  0.000000000E+00  0.00000E+00  9.000E+00
      23     2     1     2     0     0 -3.200636423E+00 -7.291904798E+00  6.620752336E+01  1.141102973E+02  9.259755860E+01  0.00000E+00  9.000E+00
      11     1     3     3     0     0 -4.738700711E+01  2.201864899E+00  2.927203842E+01  5.574252313E+01  5.109979922E-04  0.00000E+00  9.000E+00
     -11     1     3     3     0     0  4.418637068E+01 -9.493769696E+00  3.693548494E+01  5.836777420E+01  5.109978753E-04  0.00000E+00  9.000E+00
      -4     1     1     2     0   511  3.200636423E+00  7.291904798E+00  2.615141418E+00  8.381820430E+00  3.228883412E-08  0.00000E+00  9.000E+00
</event>
<event>
      6  10011  1.00000E+00  2.95805E+00 -1.00000E+00  2.98595E-01
      -1    -1     0     0     0   501  0.000000000E+00  0.000000000E+00  4.058430262E-01  4.058430262E-01  0.000000000E+00  0.00000E+00  9.000E+00
      21    -1     0     0   501   511  0.000000000E+00  0.000000000E+00 -2.545670205E+02  2.545670205E+02  0.000000000E+00  0.00000E+00  9.000E+00
      23     2     1     2     0     0 -2.334311739E+00  1.816880449E+00 -2.110240827E+02  2.117344661E+02  1.707543828E+01  0.00000E+00  9.000E+00
      11     1     3     3     0     0 -4.167664249E+00 -6.834320022E+00 -1.253045228E+02  1.255599490E+02  5.109985369E-04  0.00000E+00  9.000E+00
     -11     1     3     3     0     0  1.833352510E+00  8.651200471E+00 -8.571955989E+01  8.617451711E+01  5.109971968E-04  0.00000E+00  9.000E+00
      -1     1     1     2     0   511  2.334311739E+00 -1.816880449E+00 -4.313709484E+01  4.323839749E+01  1.645887050E-07  0.00000E+00  9.000E+00
</event>
<event>
      6  10011  1.00000E+00  4.61952E+00 -1.00000E+00  2.49459E-01
       2    -1     0     0   501     0  0.000000000E+00  0.000000000E+00  1.047534141E+03  1.047534141E+03  0.000000000E+00  0.00000E+00  9.000E+00
      -2    -1     0     0     0   511  0.000000000E+00  0.000000000E+00 -2.659316395E+00  2.659316395E+00  0.000000000E+00  0.00000E+00  9.000E+00
      23     2     1     2     0     0  4.346835317E+00 -1.563654754E+00  1.039305033E+03  1.042957258E+03  8.708359287E+01  0.00000E+00  9.000E+00
      11     1     3     3     0     0 -2.077619445E+01 -3.058164344E+01  7.748326375E+02  7.757141892E+02  5.106928190E-04  0.00000E+00  9.000E+00
     -11     1     3     3     0     0  2.512302977E+01  2.901798869E+01  2.644723951E+02  2.672430692E+02  5.110131769E-04  0.00000E+00  9.000E+00
      21     1     1     2   501   511 -4.346835317E+00  1.563654754E+00  5.569792333E+00  7.236199285E+00  5.363593358E-07  0.00000E+00  9.000E+00
</event>
<event>
      6  10011  1.00000E+00  1.77784E+01 -1.00000E+00  1.70658E-01
       4    -1     0     0   501     0  0.000000000E+00  0.000000000E+00  2.279662445E+01  2.279662445E+01  0.000000000E+00  0.00000E+00  9.000E+00
      -4    -1     0     0     0   511  0.000000000E+00  0.000000000E+00 -6.597953852E+01  6.597953852E+01  0.000000000E+00  0.00000E+00  9.000E+00
      23     2     1     2     0     0 -2.965636466E+00  1.752930430E+01  1.995986703E+00  4.022511165E+01  3.602782446E+01  0.00000E+00  9.000E+00
      11     1     3     3     0     0  8.579677287E+00  6.818055643E+00 -1.399890543E+01  1.777824790E+01  5.109989865E-04  0.00000E+00  9.000E+00
     -11     1     3     3     0     0 -1.154531375E+01  1.071124866E+01  1.599489213E+01  2.244686374E+01  5.109989689E-04  0.00000E+00  9.000E+00
      21     1     1     2   501   511  2.965636466E+00 -1.752930430E+01 -4.517890078E+01  4.855105132E+01  2.959672222E-07  0.00000E+00  9.000E+00
</event>
<event>
      6  10011  1.00000E+00  1.35328E+01 -1.00000E+00  1.81651E-01
      21    -1     0     0   511   501  0.000000000E+00  0.000000000E+00  6.092793769E-01  6.092793769E-01  0.000000000E+00  0.00000E+00  9.000E+00
       2    -1     0     0   501     0  0.000000000E+00  0.000000000E+00 -7.838156792E+02  7.838156792E+02  0.000000000E+00  0.00000E+00  9.000E+00
      23     2     1     2     0     0 -1.333185607E+01  2.323280605E+00 -6.792381552E+02  6.795796826E+02  1.676118762E+01  0.00000E+00  9.000E+00
      11     1     3     3     0     0 -1.646287150E+01  5.068967972E+00 -5.761594978E+02  5.764169389E+02  5.110544927E-04  0.00000E+00  9.000E+00
     -11     1     3     3     0     0  3.131015424E+00 -2.745687368E+00 -1.030786574E+02  1.031627436E+02  5.110060255E-04  0.00000E+00  9.000E+00
       2     1     1     2   511     0  1.333185607E+01 -2.323280605E+00 -1.039682446E+02  1.048452760E+02  2.847486750E-06  0.00000E+00  9.000E+00
</event>
<event>
      6  10011  1.00000E+00  1.00690E+01 -1.00000E+00  1.95355E-01
      -2    -1     0     0     0   511  0.000000000E+00  0.000000000E+00  8.996403886E-01  8.996403886E-01  0.000000000E+00  0.00000E+00  9.000E+00
       2    -1     0     0   501     0  0.000000000E+00  0.000000000E+00 -1.355203331E+03  1.355203331E+03  0.000000000E+00  0.00000E+00  9.000E+00
      23     2     1     2     0     0 -9.831410167E+00  2.174240817E+00 -1.314409768E+03  1.314957996E+03  3.660749491E+01  0.00000E+00  9.000E+00
      11     1     3     3     0     0  1.332793428E+01  5.776162588E+00 -5.115778888E+02  5.117840699E+02  5.108938129E-04  0.00000E+00  9.000E+00
     -11     1     3     3     0     0 -2.315934445E+01 -3.601921771E+00 -8.028318796E+02  8.031739264E+02  5.112345386E-04  0.00000E+00  9.000E+00
      21     1     1     2   501   511  9.831410167E+00 -2.174240817E+00 -3.989392187E+01  4.114497480E+01  1.571560416E-06  0.00000E+00  9.000E+00
</event>
<event>
      6  10011  1.00000E+00  1.85344E+00 -1.00000E+00  3.78996E-01
      -3    -1     0     0     0   511  0.000000000E+00  0.000000000E+00  1.873687037E+02  1.873687037E+02  0.000000000E+00  0.00000E+00  9.000E+00
       3    -1     0     0   501     0  0.000000000E+00  0.000000000E+00 -7.315740335E-01  7.315740335E-01  0.000000000E+00  0.00000E+00  9.000E+00
      23     2     1     2     0     0 -1.709589553E+00  7.159336416E-01  9.738341133E+01  9.882731714E+01  1.672945164E+01  0.00000E+00  9.000E+00
      11     1     3     3     0     0  2.150344075E-01 -2.914369677E+00  2.473704278E+00  3.828707814E+00  5.109988797E-04  0.00000E+00  9.000E+00
     -11     1     3     3     0     0 -1.924623961E+00  3.630303319E+00  9.490970706E+01  9.499860932E+01  5.109980076E-04  0.00000E+00  9.000E+00
      21     1     1     2   501   511  1.709589553E+00 -7.159336416E-01  8.925371828E+01  8.927296055E+01  7.432677694E-07  0.00000E+00  9.000E+00
</event>
<event>
      6  10011  1.00000E+00  9.98395E-01 -1.00000E+00  6.52747E-01
      -2    -1     0     0     0   511  0.000000000E+00  0.000000000E+00  2.847703601E-01  2.847703601E-01  0.000000000E+00  0.00000E+00  9.000E+00
       2    -1     0     0   501     0  0.000000000E+00  0.000000000E+00 -7.299201326E+02  7.299201326E+02  0.000000000E+00  0.00000E+00  9.000E+00
      23     2     1     2     0     0 -8.965837657E-01  4.392388999E-01 -7.218372257E+02  7.223431139E+02  2.701105408E+01  0.00000E+00  9.000E+00
      11     1     3     3     0     0 -1.129985810E+00 -1.779953583E+00 -4.172490236E+00  4.674909381E+00  5.109984381E-04  0.00000E+00  9.000E+00
     -11     1     3     3     0     0  2.334020448E-01  2.219192483E+00 -7.176647355E+02  7.176682045E+02  5.111314009E-04  0.00000E+00  9.000E+00
      21     1     1     2   501   511  8.965837657E-01 -4.392388999E-01 -7.798136549E+00  7.861789039E+00  1.842324606E-07  0.00000E+00  9.000E+00
</event>
<event>
      6  10011  1.00000E+00  2.25040E+00 -1.00000E+00  3.40555E-01
      -2    -1     0     0     0   511  0.000000000E+00  0.000000000E+00  2.737368902E-01  2.737368902E-01  0.000000000E+00  0.00000E+00  9.000E+00
       2    -1     0     0   501     0  0.000000000E+00  0.000000000E+00 -4.141738454E+02  4.141738454E+02  0.000000000E+00  0.00000E+00  9.000E+00
      23     2     1     2     0     0  2.954570589E-01 -2.230915669E+00 -3.985481082E+02  3.989315199E+02  1.734066649E+01  0.00000E+00  9.000E+00
      11     1     3     3     0     0 -7.932127953E+00 -2.794346867E+00 -1.403484258E+02  1.406001695E+02  5.109830934E-04  0.00000E+00  9.000E+00
     -11     1     3     3     0     0  8.227585012E+00  5.634311986E-01 -2.581996824E+02  2.583313504E+02  5.109853252E-04  0.00000E+00  9.000E+00
      21     1     1     2   501   511 -2.954570589E-01  2.230915669E+00 -1.535200029E+01  1.551606240E+01  3.408386154E-07  0.00000E+00  9.000E+00
</event>
<event>
      6  10011  1.00000E+00  1.90723E+00 -1.00000E+00  3.72751E-01
      -1    -1     0     0     0   511  0.000000000E+00  0.000000000E+00  7.256575107E-02  7.256575107E-02  0.000000000E+00  0.00000E+00  9.000E+00
       1    -1     0     0   501     0  0.000000000E+00  0.000000000E+00 -1.716007004E+03  1.716007004E+03  0.000000000E+00  0.00000E+00  9.000E+00
      23     2     1     2     0     0  1.431573726E+00 -1.260209409E+00 -1.681605719E+03  1.681697910E+03  1.750515083E+01  0.00000E+00  9.000E+00
      11     1     3     3     0     0 -4.832779926E+00  4.348008541E+00 -3.189044169E+02  3.189706696E+02  5.110057240E-04  0.00000E+00  9.000E+00
     -11     1     3     3     0     0  6.264353652E+00 -5.608217950E+00 -1.362701302E+03  1.362727241E+03  5.111434115E-04  0.00000E+00  9.000E+00
      21     1     1     2   501   511 -1.431573726E+00  1.260209409E+00 -3.432871955E+01  3.438165960E+01  3.969139040E-07  0.00000E+00  9.000E+00
</event>
<event>
      6  10011  1.00000E+00  1.60745E+01 -1.00000E+00  1.74553E-01
       2    -1     0     0   501     0  0.000000000E+00  0.000000000E+00  1.402094687E+02  1.402094687E+02  0.000000000E+00  0.00000E+00  9.000E+00
      21    -1     0     0   511   501  0.000000000E+00  0.000000000E+00 -5.866435128E+00  5.866435128E+00  0.000000000E+00  0.00000E+00  9.000E+00
      23     2     1     2     0     0 -1.606283912E+01  6.117960711E-01  1.230715742E+02  1.264434080E+02  2.414402546E+01  0.00000E+00  9.000E+00
      11     1     3     3     0     0 -1.938644481E+01 -5.870439352E+00  1.054093869E+02  1.073379484E+02  5.109970734E-04  0.00000E+00  9.000E+00
     -11     1     3     3     0     0  3.323605691E+00  6.482235423E+00  1.766218726E+01  1.910545969E+01  5.109993372E-04  0.00000E+00  9.000E+00
       2     1     1     2   511     0  1.606283912E+01 -6.117960711E-01  1.127145940E+01  1.963249582E+01  3.889138842E-07  0.00000E+00  9.000E+00
</event>
<event>
      6  10011  1.00000E+00  9.69193E+00 -1.00000E+00  1.97282E-01
      -2    -1     0     0     0   511  0.000000000E+00  0.000000000E+00  4.838660375E-01  4.838660375E-01  0.000000000E+00  0.00000E+00  9.000E+00
       2    -1     0     0   501     0  0.000000000E+00  0.000000000E+00 -8.632248225E+02  8.632248225E+02  0.000000000E+00  0.00000E+00  9.000E+00
      23     2     1     2     0     0 -9.131400323E+00 -3.248242993E+00 -7.864280289E+02  7.867827731E+02  2.154422974E+01  0.00000E+00  9.000E+00
      11     1     3     3     0     0 -6.503929251E+00  2.619385274E+00 -7.221482794E+02  7.221823175E+02  5.109270933E-04  0.00000E+00  9.000E+00
     -11     1     3     3     0     0 -2.627471073E+00 -5.867628266E+00 -6.427974952E+01  6.460045561E+01  5.110008125E-04  0.00000E+00  9.000E+00
      21     1     1     2   501   511  9.131400323E+00  3.248242993E+00 -7.631292750E+01  7.692591539E+01  1.447485023E-06  0.00000E+00  9.000E+00
</event>
<event>
      6  10011  1.00000E+00  2.30106E+00 -1.00000E+00  3.36670E-01
       1    -1     0     0   501     0  0.000000000E+00  0.000000000E+00  9.200834168E-01  9.200834168E-01  0.000000000E+00  0.00000E+00  9.000E+00
      21    -1     0     0   511   501  0.000000000E+00  0.000000000E+00 -1.287612785E+02  1.287612785E+02  0.000000000E+00  0.00000E+00  9.000E+00
      23     2     1     2     0     0  1.606777832E+00 -1.647167966E+00 -1.001056039E+02  1.018504813E+02  1.863045122E+01  0.00000E+00  9.000E+00
      11     1     3     3     0     0 -4.116697067E+00  4.690396004E+00 -1.406779953E+01  1.538993156E+01  5.109989197E-04  0.00000E+00  9.000E+00
     -11     1     3     3     0     0  5.723474899E+00 -6.337563970E+00 -8.603780438E+01  8.646054976E+01  5.110035009E-04  0.00000E+00  9.000E+00
       1     1     1     2   511     0 -1.606777832E+00  1.647167966E+00 -2.773559121E+01  2.783088064E+01  9.094592643E-08  0.00000E+00  9.000E+00
</event>
<event>
      6  10011  1.00000E+00  4.41813E+00 -1.00000E+00  2.53595E-01
      21    -1     0     0   511   501  0.000000000E+00  0.000000000E+00  2.224082386E+00  2.224082386E+00  0.000000000E+00  0.00000E+00  9.000E+00
       2    -1     0     0   501     0  0.000000000E+00  0.000000000E+00 -2.184613353E+03  2.184613353E+03  0.000000000E+00  0.00000E+00  9.000E+00
      23     2     1     2     0     0 -2.995182622E+00 -3.247880939E+00 -2.179780579E+03  2.181706634E+03  9.154750013E+01  0.00000E+00  9.000E+00
      11     1     3     3     0     0  9.518195627E+00 -4.259498882E+01 -7.060095105E+02  7.073573058E+02  5.109619985E-04  0.00000E+00  9.000E+00
     -11     1     3     3     0     0 -1.251337825E+01  3.934710789E+01 -1.473771069E+03  1.474349328E+03  5.121497462E-04  0.00000E+00  9.000E+00
       2     1     1     2   511     0  2.995182622E+00  3.247880939E+00 -2.608691514E+00  5.130801199E+00  2.272503419E-07  0.00000E+00  9.000E+00
</event>
<event>
      6  10011  1.00000E+00  2.20470E+01 -1.00000E+00  1.62912E-01
      21    -1     0     0   511   501  0.000000000E+00  0.000000000E+00  1.619476456E+01  1.619476456E+01  0.000000000E+00  0.00000E+00  9.000E+00
       5    -1     0     0   501     0  0.000000000E+00  0.000000000E+00 -2.344028993E+02  2.344028993E+02  0.000000000E+00  0.00000E+00  9.000E+00
      23     2     1     2     0     0 -3.595111188E+00  2.175188841E+01 -1.910591223E+02  2.156242690E+02  9.748932089E+01  0.00000E+00  9.000E+00
      11     1     3     3     0     0  2.995220962E+01  5.302981310E+00 -1.700713661E+02  1.727701538E+02  5.109984030E-04  0.00000E+00  9.000E+00
     -11     1     3     3     0     0 -3.354732081E+01  1.644890710E+01 -2.098775617E+01  4.285411518E+01  5.110014890E-04  0.00000E+00  9.000E+00
       5     1     1     2   511     0  3.595111188E+00 -2.175188841E+01 -2.714901251E+01  3.497339495E+01  5.658028006E-07  0.00000E+00  9.000E+00
</event>
<event>
      6  10011  1.00000E+00  1.06397E+00 -1.00000E+00  6.07149E-01
      -1    -1     0     0     0   511  0.000000000E+00  0.000000000E+00  7.670627425E+01  7.670627425E+01  0.000000000E+00  0.00000E+00  9.000E+00
       1    -1     0     0   501     0  0.000000000E+00  0.000000000E+00 -1.956593979E+00  1.956593979E+00  0.000000000E+00  0.00000E+00  9.000E+00
      23     2     1     2     0     0  9.009277994E-01 -5.660135647E-01  6.655312924E+01  7.039754966E+01  2.292081901E+01  0.00000E+00  9.000E+00
      11     1     3     3     0     0  2.845820721E+00  7.085011587E-01  6.772857725E+01  6.779204117E+01  5.109978368E-04  0.00000E+00  9.000E+00
     -11     1     3     3     0     0 -1.944892922E+00 -1.274514723E+00 -1.175448002E+00  2.605508496E+00  5.109988664E-04  0.00000E+00  9.000E+00
      21     1     1     2   501   511 -9.009277994E-01  5.660135647E-01  8.196551028E+00  8.265318567E+00  8.449924158E-08  0.00000E+00  9.000E+00
</event>
<event>
      6  10011  1.00000E+00  7.98128E+00 -1.00000E+00  2.07738E-01
       4    -1     0     0   501     0  0.000000000E+00  0.000000000E+00  4.658662892E+01  4.658662892E+01  0.000000000E+00  0.00000E+00  9.000E+00
      21    -1     0     0   511   501  0.000000000E+00  0.000000000E+00 -1.532810428E+02  1.532810428E+02  0.000000000E+00  0.00000E+00  9.000E+00
      23     2     1     2     0     0 -7.741066356E+00 -1.943397184E+00  1.848243256E+00  9.103197298E+01  9.066257883E+01  0.00000E+00  9.000E+00
      11     1     3     3     0     0  2.294290284E+01 -2.227128783E+01 -2.887856786E+01  4.308548171E+01  5.109987325E-04  0.00000E+00  9.000E+00
     -11     1     3     3     0     0 -3.068396920E+01  2.032789064E+01  3.072681111E+01  4.794649127E+01  5.109991361E-04  0.00000E+00  9.000E+00
       4     1     1     2   511     0  7.741066356E+00  1.943397184E+00 -1.085426571E+02  1.088356987E+02  1.054513813E-06  0.00000E+00  9.000E+00
</event>
<event>
      6  10011  1.00000E+00  9.95917E+00 -1.00000E+00  1.95904E-01
      21    -1     0     0   511   501  0.000000000E+00  0.000000000E+00  1.157088232E+01  1.157088232E+01  0.000000000E+00  0.00000E+00  9.000E+00
       2    -1     0     0   501     0  0.000000000E+00  0.000000000E+00 -8.786525642E+01  8.786525642E+01  0.000000000E+00  0.00000E+00  9.000E+00
      23     2     1     2     0     0  4.649641899E+00 -8.807150233E+00 -7.129153547E+01  8.829102952E+01  5.112374985E+01  0.00000E+00  9.000E+00
      11     1     3     3     0     0 -1.864785843E+00  2.123202896E+01 -3.075902288E+01  3.742183813E+01  5.109990781E-04  0.00000E+00  9.000E+00
     -11     1     3     3     0     0  6.514427743E+00 -3.003917920E+01 -4.053251259E+01  5.086919139E+01  5.109991747E-04  0.00000E+00  9.000E+00
       2     1     1     2   511     0 -4.649641899E+00  8.807150233E+00 -5.002838631E+00  1.114510921E+01  4.042412045E-08  0.00000E+00  9.000E+00
</event>
<event>
      6  10011  1.00000E+00  1.32935E+00 -1.00000E+00  4.89867E-01
      -2    -1     0     0     0   511  0.000000000E+00  0.000000000E+00  6.716966631E+02  6.716966631E+02  0.000000000E+00  0.00000E+00  9.000E+00
       2    -1     0     0   501     0  0.000000000E+00  0.000000000E+00 -1.412001703E-01  1.412001703E-01  0.000000000E+00  0.00000E+00  9.000E+00
      23     2     1     2     0     0  1.270400383E+00  3.914626773E-01  5.287950872E+02  5.290712984E+02  1.704193084E+01  0.00000E+00  9.000E+00
      11     1     3     3     0     0  2.925709090E+00  5.325899769E+00  4.717835888E+02  4.718227205E+02  5.110149914E-04  0.00000E+00  9.000E+00
     -11     1     3     3     0     0 -1.655308707E+00 -4.934437092E+00  5.701149844E+01  5.724857790E+01  5.109954204E-04  0.00000E+00  9.000E+00
      21     1     1     2   501   511 -1.270400383E+00 -3.914626773E-01  1.427603758E+02  1.427665649E+02  1.245294953E-06  0.00000E+00  9.000E+00
</event>
<event>
      6  10011  1.00000E+00  3.09077E+00 -1.00000E+00  2.92859E-01
      -3    -1     0     0     0   511  0.000000000E+00  0.000000000E+00  2.782612791E+02  2.782612791E+02  0.000000000E+00  0.00000E+00  9.000E+00
       3    -1     0     0   501     0  0.000000000E+00  0.000000000E+00 -8.573454555E-01  8.573454555E-01  0.000000000E+00  0.00000E+00  9.000E+00
      23     2     1     2     0     0  1.965757964E+00  2.385092531E+00  2.450533939E+02  2.466207740E+02  2.758781293E+01  0.00000E+00  9.000E+00
      11     1     3     3     0     0  3.082171784E+00  1.394962410E+00  2.451043316E+02  2.451276791E+02  5.109961748E-04  0.00000E+00  9.000E+00
     -11     1     3     3     0     0 -1.116413820E+00  9.901301205E-01 -5.093765000E-02  1.493094899E+00  5.109988881E-04  0.00000E+00  9.000E+00
      21     1     1     2   501   511 -1.965757964E+00 -2.385092531E+00  3.235053977E+01  3.249785061E+01  3.441813428E-07  0.00000E+00  9.000E+00
</event>
<event>
      6  10011  1.00000E+00  3.15822E+00 -1.00000E+00  2.90122E-01
       2    -1     0     0   511     0  0.000000000E+00  0.000000000E+00  2.234646369E+02  2.234646369E+02  0.000000000E+00  0.00000E+00  9.000E+00
      -2    -1     0     0     0   501  0.000000000E+00  0.000000000E+00 -5.737623262E-01  5.737623262E-01  0.000000000E+00  0.00000E+00  9.000E+00
      23     2     1     2     0     0 -2.529945510E+00 -1.890426627E+00  1.566899579E+02  1.577621916E+02  1.808844479E+01  0.00000E+00  9.000E+00
      11     1     3     3     0     0  5.092067994E+00  5.571665044E+00  7.497511412E+01  7.535409973E+01  5.109984117E-04  0.00000E+00  9.000E+00
     -11     1     3     3     0     0 -7.622013504E+00 -7.462091671E+00  8.171484380E+01  8.240809183E+01  5.109972841E-04  0.00000E+00  9.000E+00
      21     1     1     2   511   501  2.529945510E+00  1.890426627E+00  6.620091667E+01  6.627620768E+01  1.090333350E-06  0.00000E+00  9.000E+00
</event>
<event>
      6  10011  1.00000E+00  9.11490E+00 -1.00000E+00  2.00466E-01
       2    -1     0     0   501     0  0.000000000E+00  0.000000000E+00  3.942714203E+01  3.942714203E+01  0.000000000E+00  0.00000E+00  9.000E+00
      21    -1     0     0   511   501  0.000000000E+00  0.000000000E+00 -7.698722458E+00  7.698722458E+00  0.000000000E+00  0.00000E+00  9.000E+00
      23     2     1     2     0     0 -7.787378739E+00  4.736895744E+00  2.183622211E+01  3.367458130E+01  2.395987021E+01  0.00000E+00  9.000E+00
      11     1     3     3     0     0 -1.159718915E+01  1.222676222E+01  1.173632177E+01  2.053605998E+01  5.109988975E-04  0.00000E+00  9.000E+00
     -11     1     3     3     0     0  3.809810415E+00 -7.489866474E+00  1.009990034E+01  1.313852131E+01  5.109988537E-04  0.00000E+00  9.000E+00
       2     1     1     2   511     0  7.787378739E+00 -4.736895744E+00  9.892197463E+00  1.345128319E+01  1.569713740E-07  0.00000E+00  9.000E+00
</event>
<event>
      6  10011  1.00000E+00  1.83868E+00 -1.00000E+00  3.80782E-01
       2    -1     0     0   501     0  0.000000000E+00  0.000000000E+00  6.109967353E+02  6.109967353E+02  0.000000000E+00  0.00000E+00  9.000E+00
      -2    -1     0     0     0   511  0.000000000E+00  0.000000000E+00 -2.490894448E-01  2.490894448E-01  0.000000000E+00  0.00000E+00  9.000E+00
      23     2     1     2     0     0 -1.416687321E+00 -1.172067797E+00  6.000943503E+02  6.004350222E+02  2.013965871E+01  0.00000E+00  9.000E+00
      11     1     3     3     0     0 -5.948802812E+00  8.006178560E+00  2.854564860E+02  2.856306925E+02  5.110386216E-04  0.00000E+00  9.000E+00
     -11     1     3     3     0     0  4.532115491E+00 -9.178246357E+00  3.146378643E+02  3.148043296E+02  5.110442388E-04  0.00000E+00  9.000E+00
      21     1     1     2   501   511  1.416687321E+00  1.172067797E+00  1.065329552E+01  1.081080253E+01  3.904719142E-07  0.00000E+00  9.000E+00
</event>
<event>
      5  10011  1.00000E+00  8.94427E-01 -1.00000E+00  7.31946E-01
      -2    -1     0     0     0   501  0.000000000E+00  0.000000000E+00  5.293278586E-01  5.293278586E-01  0.000000000E+00  0.00000E+00  9.000E+00
       2    -1     0     0   501     0  0.000000000E+00  0.000000000E+00 -2.359670180E+02  2.359670180E+02  0.000000000E+00  0.00000E+00  9.000E+00
      23     2     1     2     0     0  0.000000000E+00  0.000000000E+00 -2.354376902E+02  2.364963459E+02  2.235208414E+01  0.00000E+00  9.000E+00
      11     1     3     3     0     0  1.872529501E+00  4.873045785E-01 -2.341813678E+02  2.341893611E+02  5.109934806E-04  0.00000E+00  9.000E+00
     -11     1     3     3     0     0 -1.872529501E+00 -4.873045785E-01 -1.256322315E+00  2.306984722E+00  5.109989947E-04  0.00000E+00  9.000E+00
</event>
<event>
      6  10011  1.00000E+00  3.12153E+01 -1.00000E+00  1.51817E-01
      -4    -1     0     0     0   501  0.000000000E+00  0.000000000E+00  3.771901482E+02  3.771901482E+02  0.000000000E+00  0.00000E+00  9.000E+00
      21    -1     0     0   501   511  0.000000000E+00  0.000000000E+00 -1.848203555E+01  1.848203555E+01  0.000000000E+00  0.00000E+00  9.000E+00
      23     2     1     2     0     0  3.018436811E+01  7.956054279E+00  3.496101494E+02  3.631580666E+02  9.317794742E+01  0.00000E+00  9.000E+00
      11     1     3     3     0     0  1.084919585E+01 -1.300367910E+01  5.409447716E+00  1.777815642E+01  5.110001511E-04  0.00000E+00  9.000E+00
     -11     1     3     3     0     0  1.933517226E+01  2.095973338E+01  3.442007017E+02  3.453799102E+02  5.110245298E-04  0.00000E+00  9.000E+00
      -4     1     1     2     0   511 -3.018436811E+01 -7.956054279E+00  9.097963209E+00  3.251411713E+01  5.713252210E-07  0.00000E+00  9.000E+00
</event>
<event>
      6  10011  1.00000E+00  5.23169E+00 -1.00000E+00  2.35044E-01
      -4    -1     0     0     0   501  0.000000000E+00  0.000000000E+00  9.201257800E+00  9.201257800E+00  0.000000000E+00  0.00000E+00  9.000E+00
      21    -1     0     0   501   511  0.000000000E+00  0.000000000E+00 -2.292784384E+01  2.292784384E+01  0.000000000E+00  0.00000E+00  9.000E+00
      23     2     1     2     0     0 -4.693642729E+00 -2.310910277E+00 -1.152008214E+00  1.850960841E+01  1.771744598E+01  0.00000E+00  9.000E+00
      11     1     3     3     0     0  2.766760158E-01  7.065772662E+00 -3.098100386E+00  7.720098393E+00  5.109989107E-04  0.00000E+00  9.000E+00
     -11     1     3     3     0     0 -4.970318745E+00 -9.376682940E+00  1.946092172E+00  1.078951002E+01  5.109988602E-04  0.00000E+00  9.000E+00
      -4     1     1     2     0   511  4.693642729E+00  2.310910277E+00 -1.257457783E+01  1.361949323E+01  1.455726004E-07  0.00000E+00  9.000E+00
</event>
<event>
      6  10011  1.00000E+00  2.54570E+00 -1.00000E+00  3.20168E-01
      21    -1     0     0   511   501  0.000000000E+00  0.000000000E+00  5.321887510E-01  5.321887510E-01  0.000000000E+00  0.00000E+00  9.000E+00
       2    -1     0     0   501     0  0.000000000E+00  0.000000000E+00 -1.322502180E+03  1.322502180E+03  0.000000000E+00  0.00000E+00  9.000E+00
      23     2     1     2     0     0  5.738293700E-01 -2.480183173E+00 -1.318860367E+03  1.319015619E+03  2.007621642E+01  0.00000E+00  9.000E+00
      11     1     3     3     0     0  3.913563243E+00 -1.243666325E+00 -1.276273505E+03  1.276280112E+03  5.100800432E-04  0.00000E+00  9.000E+00
     -11     1     3     3     0     0 -3.339733873E+00 -1.236516848E+00 -4.258686162E+01  4.273550725E+01  5.109771808E-04  0.00000E+00  9.000E+00
       2     1     1     2   511     0 -5.738293700E-01  2.480183173E+00 -3.109624634E+00  4.018750314E+00  3.576897089E-07  0.00000E+00  9.000E+00
</event>
<event>
      6  10011  1.00000E+00  2.68538E+00 -1.00000E+00  3.12120E-01
      -2    -1     0     0     0   501  0.000000000E+00  0.000000000E+00  8.436982768E-01  8.436982768E-01  0.000000000E+00  0.00000E+00  9.000E+00
       2    -1     0     0   511     0  0.000000000E+00  0.000000000E+00 -2.642545377E+02  2.642545377E+02  0.000000000E+00  0.00000E+00  9.000E+00
      23     2     1     2     0     0 -2.043217984E+00  1.742566570E+00 -1.049842573E+02  1.066488964E+02  1.857637079E+01  0.00000E+00  9.000E+00
      11     1     3     3     0     0 -9.598164500E+00 -1.041288081E+00 -3.909136927E+01  4.026591852E+01  5.109986717E-04  0.00000E+00  9.000E+00
     -11     1     3     3     0     0  7.554946516E+00  2.783854651E+00 -6.589288800E+01  6.638297788E+01  5.109979537E-04  0.00000E+00  9.000E+00
      21     1     1     2   511   501  2.043217984E+00 -1.742566570E+00 -1.584265822E+02  1.584493396E+02  1.023743393E-06  0.00000E+00  9.000E+00
</event>
<event>
      6  10011  1.00000E+00  1.60515E+00 -1.00000E+00  4.14162E-01
      21    -1     0     0   501   511  0.000000000E+00  0.000000000E+00  3.851963397E+01  3.851963397E+01  0.000000000E+00  0.00000E+00  9.000E+00
      -4    -1     0     0     0   501  0.000000000E+00  0.000000000E+00 -7.978244821E+01  7.978244821E+01  0.000000000E+00  0.00000E+00  9.000E+00
      23     2     1     2     0     0 -1.580237427E+00 -2.816747599E-01 -5.184557804E+01  1.075982800E+02  9.427008757E+01  0.00000E+00  9.000E+00
      11     1     3     3     0     0 -2.954138358E+01 -3.738427187E+01 -2.295015827E+01  5.288654737E+01  5.109987627E-04  0.00000E+00  9.000E+00
     -11     1     3     3     0     0  2.796114615E+01  3.710259711E+01 -2.889541976E+01  5.471173265E+01  5.109988573E-04  0.00000E+00  9.000E+00
      -4     1     1     2     0   511  1.580237427E+00  2.816747599E-01  1.058276380E+01  1.070380216E+01  1.390386940E-07  0.00000E+00  9.000E+00
</event>
<event>
      6  10011  1.00000E+00  9.34569E+00 -1.00000E+00  1.99156E-01
       1    -1     0     0   501     0  0.000000000E+00  0.000000000E+00  3.717970239E+02  3.717970239E+02  0.000000000E+00  0.00000E+00  9.000E+00
      21    -1     0     0   511   501  0.000000000E+00  0.000000000E+00 -3.046574437E+01  3.046574437E+01  0.000000000E+00  0.00000E+00  9.000E+00
      23     2     1     2     0     0  9.318345968E+00 -7.143619695E-01  3.647680868E+02  3.770313232E+02  9.491848936E+01  0.00000E+00  9.000E+00
      11     1     3     3     0     0 -1.743301872E+01 -1.581905829E+01  3.291669375E+02  3.300076143E+02  5.110107714E-04  0.00000E+00  9.000E+00
     -11     1     3     3     0     0  2.675136469E+01  1.510469632E+01  3.560114923E+01  4.702370882E+01  5.110006226E-04  0.00000E+00  9.000E+00
       1     1     1     2   511     0 -9.318345968E+00  7.143619695E-01 -2.343680729E+01  2.523144507E+01  5.748063779E-07  0.00000E+00  9.000E+00
</event>
<event>
      6  10011  1.00000E+00  6.69507E+00 -1.00000E+00  2.18251E-01
      21    -1     0     0   501   511  0.000000000E+00  0.000000000E+00  2.937688721E+01  2.937688721E+01  0.000000000E+00  0.00000E+00  9.000E+00
      -3    -1     0     0     0   501  0.000000000E+00  0.000000000E+00 -8.043837025E+01  8.043837025E+01  0.000000000E+00  0.00000E+00  9.000E+00
      23     2     1     2     0     0 -6.535122014E+00 -1.454704639E+00 -4.904687568E+01  1.028236462E+02  9.012370508E+01  0.00000E+00  9.000E+00
      11     1     3     3     0     0 -4.504861127E+00 -4.362957850E+01 -9.302934698E+00  4.483724443E+01  5.109976439E-04  0.00000E+00  9.000E+00
     -11     1     3     3     0     0 -2.030260886E+00  4.217487386E+01 -3.974394098E+01  5.798640177E+01  5.109981161E-04  0.00000E+00  9.000E+00
      -3     1     1     2     0   511  6.535122014E+00  1.454704639E+00 -2.014607357E+00  6.991611268E+00  1.046422872E-07  0.00000E+00  9.000E+00
</event>
<event>
      6  10011  1.00000E+00  3.22955E+00 -1.00000E+00  2.87348E-01
       3    -1     0     0   511     0  0.000000000E+00  0.000000000E+00  2.644379920E+01  2.644379920E+01  0.000000000E+00  0.00000E+00  9.000E+00
      -3    -1     0     0     0   501  0.000000000E+00  0.000000000E+00 -8.117251814E+01  8.117251814E+01  0.000000000E+00  0.00000E+00  9.000E+00
      23     2     1     2     0     0  7.115795748E-01 -3.150177617E+00 -5.496817720E+01  1.043779065E+02  8.867252616E+01  0.00000E+00  9.000E+00
      11     1     3     3     0     0 -1.906572851E+01 -4.065867933E+01 -1.894748800E+01  4.874051200E+01  5.109986066E-04  0.00000E+00  9.000E+00
     -11     1     3     3     0     0  1.977730808E+01  3.750850171E+01 -3.602068920E+01  5.563739449E+01  5.109990635E-04  0.00000E+00  9.000E+00
      21     1     1     2   511   501 -7.115795748E-01  3.150177617E+00  2.394582640E-01  3.238410840E+00  2.315831127E-08  0.00000E+00  9.000E+00
</event>
<event>
      6  10011  1.00000E+00  9.38943E+00 -1.00000E+00  1.98914E-01
       2    -1     0     0   501     0  0.000000000E+00  0.000000000E+00  1.214800670E+03  1.214800670E+03  0.000000000E+00  0.00000E+00  9.000E+00
      21    -1     0     0   511   501  0.000000000E+00  0.000000000E+00 -2.361445367E-01  2.361445367E-01  0.000000000E+00  0.00000E+00  9.000E+00
      23     2     1     2     0     0 -9.383474106E+00  3.344655648E-01  1.033133350E+03  1.033362841E+03  1.964890723E+01  0.00000E+00  9.000E+00
      11     1     3     3     0     0 -7.570240647E+00  2.133199919E+00  1.368335045E+02  1.370593559E+02  5.109966736E-04  0.00000E+00  9.000E+00
     -11     1     3     3     0     0 -1.813233458E+00 -1.798734355E+00  8.962998458E+02  8.963034848E+02  5.107402334E-04  0.00000E+00  9.000E+00
       2     1     1     2   511     0  9.383474106E+00 -3.344655648E-01  1.814311751E+02  1.816739738E+02  3.109740606E-06  0.00000E+00  9.000E+00
</event>
<event>
      6  10011  1.00000E+00  5.81728E+00 -1.00000E+00  2.27498E-01
       3    -1     0     0   511     0  0.000000000E+00  0.000000000E+00  2.629728381E+00  2.629728381E+00  0.000000000E+00  0.00000E+00  9.000E+00
      -3    -1     0     0     0   501  0.000000000E+00  0.000000000E+00 -5.285518718E+01  5.285518718E+01  0.000000000E+00  0.00000E+00  9.000E+00
      23     2     1     2     0     0  5.683493149E+00  1.240410874E+00 -4.032128729E+01  4.399869221E+01  1.662040897E+01  0.00000E+00  9.000E+00
      11     1     3     3     0     0  4.987570752E+00  7.140174827E+00 -3.485182138E+01  3.592363306E+01  5.109988714E-04  0.00000E+00  9.000E+00
     -11     1     3     3     0     0  6.959223970E-01 -5.899763953E+00 -5.469465906E+00  8.075059148E+00  5.109989279E-04  0.00000E+00  9.000E+00
      21     1     1     2   511   501 -5.683493149E+00 -1.240410874E+00 -9.904171506E+00  1.148622334E+01  1.535976539E-08  0.00000E+00  9.000E+00
</event>
<event>
      6  10011  1.00000E+00  1.22084E+01 -1.00000E+00  1.86193E-01
      -1    -1     0     0     0   501  0.000000000E+00  0.000000000E+00  2.708537924E+02  2.708537924E+02  0.000000000E+00  0.00000E+00  9.000E+00
       1    -1     0     0   511     0  0.000000000E+00  0.000000000E+00 -1.384569213E+01  1.384569213E+01  0.000000000E+00  0.00000E+00  9.000E+00
      23     2     1     2     0     0 -9.207789111E+00 -8.016311538E+00  2.563207092E+02  2.724717645E+02  9.160519551E+01  0.00000E+00  9.000E+00
      11     1     3     3     0     0  9.616039710E+00  3.134749478E+01  3.965088111E+01  5.145217218E+01  5.109990430E-04  0.00000E+00  9.000E+00
     -11     1     3     3     0     0 -1.882382882E+01 -3.936380632E+01  2.166698281E+02  2.210195923E+02  5.110091515E-04  0.00000E+00  9.000E+00
      21     1     1     2   511   501  9.207789111E+00  8.016311538E+00  6.873910621E-01  1.222772004E+01  1.227069403E-07  0.00000E+00  9.000E+00
</event>
<event>
      6  10011  1.00000E+00  1.87508E+00 -1.00000E+00  3.76435E-01
      -1    -1     0     0     0   511  0.000000000E+00  0.000000000E+00  1.508890732E+02  1.508890732E+02  0.000000000E+00  0.00000E+00  9.000E+00
       1    -1     0     0   501     0  0.000000000E+00  0.000000000E+00 -1.443663663E+01  1.443663663E+01  0.000000000E+00  0.00000E+00  9.000E+00
      23     2     1     2     0     0  1.707873868E+00 -7.740039142E-01  1.334371815E+02  1.617749806E+02  9.144477577E+01  0.00000E+00  9.000E+00
      11     1     3     3     0     0 -3.450466628E+01  2.581423254E+01  4.344131701E+01  6.118900735E+01  5.109991095E-04  0.00000E+00  9.000E+00
     -11     1     3     3     0     0  3.621254015E+01 -2.658823646E+01  8.999586447E+01  1.005859732E+02  5.109962838E-04  0.00000E+00  9.000E+00
      21     1     1     2   501   511 -1.707873868E+00  7.740039142E-01  3.015255070E+00  3.550729270E+00  4.460636532E-08  0.00000E+00  9.000E+00
</event>
<event>
      6  10011  1.00000E+00  5.03259E+00 -1.00000E+00  2.37937E-01
       2    -1     0     0   501     0  0.000000000E+00  0.000000000E+00  2.905950939E+02  2.905950939E+02  0.000000000E+00  0.00000E+00  9.000E+00
      -2    -1     0     0     0   511  0.000000000E+00  0.000000000E+00 -7.409404690E+00  7.409404690E+00  0.000000000E+00  0.00000E+00  9.000E+00
      23     2     1     2     0     0 -3.937377351E+00  3.134335108E+00  2.683264238E+02  2.823161346E+02  8.762421546E+01  0.00000E+00  9.000E+00
      11     1     3     3     0     0  1.891095902E+01 -3.355553660E+01  7.612658908E+01  8.531621167E+01  5.109995206E-04  0.00000E+00  9.000E+00
     -11     1     3     3     0     0 -2.284833637E+01  3.668987170E+01  1.921998347E+02  1.969999229E+02  5.110075802E-04  0.00000E+00  9.000E+00
      21     1     1     2   501   511  3.937377351E+00 -3.134335108E+00  1.485926544E+01  1.568836404E+01  2.651768293E-07  0.00000E+00  9.000E+00
</event>
<event>
      6  10011  1.00000E+00  1.80332E+01 -1.00000E+00  1.70122E-01
       4    -1     0     0   501     0  0.000000000E+00  0.000000000E+00  2.497820283E+00  2.497820283E+00  0.000000000E+00  0.00000E+00  9.000E+00
      -4    -1     0     0     0   511  0.000000000E+00  0.000000000E+00 -2.080875291E+02  2.080875291E+02  0.000000000E+00  0.00000E+00  9.000E+00
      23     2     1     2     0     0 -1.524967248E+01  9.625211697E+00 -1.065970559E+02  1.099635697E+02  2.009619685E+01  0.00000E+00  9.000E+00
      11     1     3     3     0     0 -7.694628943E+00 -5.915284575E+00 -3.655058922E+01  3.781723785E+01  5.109979621E-04  0.00000E+00  9.000E+00
     -11     1     3     3     0     0 -7.555043537E+00  1.554049627E+01 -7.004646668E+01  7.214633187E+01  5.109970912E-04  0.00000E+00  9.000E+00
      21     1     1     2   501   511  1.524967248E+01 -9.625211697E+00 -9.899265287E+01  1.006217796E+02  1.000932194E-06  0.00000E+00  9.000E+00
</event>
<event>
      6  10011  1.00000E+00  3.20161E+00 -1.00000E+00  2.88420E-01
       1    -1     0     0   501     0  0.000000000E+00  0.000000000E+00  9.147915614E+02  9.147915614E+02  0.000000000E+00  0.00000E+00  9.000E+00
      -1    -1     0     0     0   511  0.000000000E+00  0.000000000E+00 -3.005685287E+00  3.005685287E+00  0.000000000E+00  0.00000E+00  9.000E+00
      23     2     1     2     0     0 -3.175471544E+00  4.082718028E-01  9.083771795E+02  9.131207610E+02  9.289872837E+01  0.00000E+00  9.000E+00
      11     1     3     3     0     0  4.382914965E+01  6.424684086E+00  3.641733959E+02  3.668576471E+02  5.109581882E-04  0.00000E+00  9.000E+00
     -11     1     3     3     0     0 -4.700462119E+01 -6.016412283E+00  5.442037835E+02  5.462631139E+02  5.107483858E-04  0.00000E+00  9.000E+00
      21     1     1     2   501   511  3.175471544E+00 -4.082718028E-01  3.408696672E+00  4.676485689E+00  2.319273713E-07  0.00000E+00  9.000E+00
</event>
<event>
      6  10011  1.00000E+00  3.12581E+00 -1.00000E+00  2.91423E-01
       1    -1     0     0   511     0  0.000000000E+00  0.000000000E+00  1.029491189E+03  1.029491189E+03  0.000000000E+00  0.00000E+00  9.000E+00
      -1    -1     0     0     0   501  0.000000000E+00  0.000000000E+00 -2.891660191E+00  2.891660191E+00  0.000000000E+00  0.00000E+00  9.000E+00
      23     2     1     2     0     0  9.336064542E-01 -2.983126171E+00  8.519462452E+02  8.577015963E+02  9.914561409E+01  0.00000E+00  9.000E+00
      11     1     3     3     0     0 -4.637900009E+00 -3.857917044E+01  7.162622312E+02  7.173154441E+02  5.109311541E-04  0.00000E+00  9.000E+00
     -11     1     3     3     0     0  5.571506463E+00  3.559604427E+01  1.356840140E+02  1.403861522E+02  5.109988793E-04  0.00000E+00  9.000E+00
      21     1     1     2   511   501 -9.336064542E-01  2.983126171E+00  1.746532833E+02  1.746812526E+02  1.348040447E-06  0.00000E+00  9.000E+00
</event>
<event>
      6  10011  1.00000E+00  5.63281E+00 -1.00000E+00  2.29736E-01
       1    -1     0     0   511     0  0.000000000E+00  0.000000000E+00  1.173458618E+01  1.173458618E+01  0.000000000E+00  0.00000E+00  9.000E+00
      -1    -1     0     0     0   501  0.000000000E+00  0.000000000E+00 -1.600741445E+02  1.600741445E+02  0.000000000E+00  0.00000E+00  9.000E+00
      23     2     1     2     0     0 -5.454884720E-01  5.606330732E+00 -1.414132877E+02  1.628811483E+02  8.062767541E+01  0.00000E+00  9.000E+00
      11     1     3     3     0     0  4.838078522E-02 -1.506773384E+01 -1.413979801E+02  1.421985503E+02  5.109970456E-04  0.00000E+00  9.000E+00
     -11     1     3     3     0     0 -5.938692572E-01  2.067406457E+01 -1.530763719E-02  2.068259803E+01  5.109994777E-04  0.00000E+00  9.000E+00
      21     1     1     2   511   501  5.454884720E-01 -5.606330732E+00 -6.926270649E+00  8.927582375E+00  1.066272839E-07  0.00000E+00  9.000E+00
</event>
<event>
      6  10011  1.00000E+00  3.15366E+00 -1.00000E+00  2.90304E-01
      21    -1     0     0   511   501  0.000000000E+00  0.000000000E+00  7.380805904E-01  7.380805904E-01  0.000000000E+00  0.00000E+00  9.000E+00
       2    -1     0     0   501     0  0.000000000E+00  0.000000000E+00 -7.924155814E+02  7.924155814E+02  0.000000000E+00  0.00000E+00  9.000E+00
      23     2     1     2     0     0 -3.116765575E+00 -4.810105364E-01 -7.884708418E+02  7.886560781E+02  1.679867710E+01  0.00000E+00  9.000E+00
      11     1     3     3     0     0  3.412777874E-02 -8.486102798E+00 -3.990301079E+02  3.991203354E+02  5.110418126E-04  0.00000E+00  9.000E+00
     -11     1     3     3     0     0 -3.150893353E+00  8.005092262E+00 -3.894407339E+02  3.895357428E+02  5.110155476E-04  0.00000E+00  9.000E+00
       2     1     1     2   511     0  3.116765575E+00  4.810105364E-01 -3.206658975E+00  4.497583859E+00  2.054173342E-07  0.00000E+00  9.000E+00
</event>
<event>
      6  10011  1.00000E+00  7.05595E+00 -1.00000E+00  2.14995E-01
      21    -1     0     0   511   501  0.000000000E+00  0.000000000E+00  1.574777523E+02  1.574777523E+02  0.000000000E+00  0.00000E+00  9.000E+00
       3    -1     0     0   501     0  0.000000000E+00  0.000000000E+00 -1.611434197E+01  1.611434197E+01  0.000000000E+00  0.00000E+00  9.000E+00
      23     2     1     2     0     0  2.190745740E+00 -6.707242930E+00  1.332940108E+02  1.628728740E+02  9.333002353E+01  0.00000E+00  9.000E+00
      11     1     3     3     0     0  1.192507526E+00 -1.385333775E+00  1.475819824E+02  1.475933018E+02  5.110079122E-04  0.00000E+00  9.000E+00
     -11     1     3     3     0     0  9.982382138E-01 -5.321909155E+00 -1.428797152E+01  1.527957221E+01  5.109988759E-04  0.00000E+00  9.000E+00
       3     1     1     2   511     0 -2.190745740E+00  6.707242930E+00  8.069399485E+00  1.071922024E+01  1.602957396E-07  0.00000E+00  9.000E+00
</event>
<event>
      6  10011  1.00000E+00  2.41551E+01 -1.00000E+00  1.59839E-01
      -2    -1     0     0     0   501  0.000000000E+00  0.000000000E+00  1.094955149E+01  1.094955149E+01  0.000000000E+00  0.00000E+00  9.000E+00
      21    -1     0     0   501   511  0.000000000E+00  0.000000000E+00 -6.684361769E+01  6.684361769E+01  0.000000000E+00  0.00000E+00  9.000E+00
      23     2     1     2     0     0  1.317760306E+01 -2.024401823E+01 -2.993691416E+01  4.233554322E+01  1.768077752E+01  0.00000E+00  9.000E+00
      11     1     3     3     0     0  1.056008607E+01 -5.395948077E+00 -2.270144406E+01  2.561224778E+01  5.109985769E-04  0.00000E+00  9.000E+00
     -11     1     3     3     0     0  2.617516993E+00 -1.484807016E+01 -7.235470093E+00  1.672329544E+01  5.109988148E-04  0.00000E+00  9.000E+00
      -2     1     1     2     0   511 -1.317760306E+01  2.024401823E+01 -2.595715204E+01  3.545762596E+01  6.846836292E-07  0.00000E+00  9.000E+00
</event>
<event>
      6  10011  1.00000E+00  1.67852E+00 -1.00000E+00  4.02499E-01
      -2    -1     0     0     0   501  0.000000000E+00  0.000000000E+00  2.000449454E+00  2.000449454E+00  0.000000000E+00  0.00000E+00  9.000E+00
       2    -1     0     0   511     0  0.000000000E+00  0.000000000E+00 -1.005538717E+02  1.005538717E+02  0.000000000E+00  0.00000E+00  9.000E+00
      23     2     1     2     0     0  4.244911958E-01  1.623961720E+00 -6.635053817E+01  7.030772153E+01  2.319405844E+01  0.00000E+00  9.000E+00
      11     1     3     3     0     0  2.073534153E+00 -1.050026029E+01 -3.677968062E+01  3.830535102E+01  5.109985948E-04  0.00000E+00  9.000E+00
     -11     1     3     3     0     0 -1.649042957E+00  1.212422201E+01 -2.957085755E+01  3.200237051E+01  5.109990108E-04  0.00000E+00  9.000E+00
      21     1     1     2   511   501 -4.244911958E-01 -1.623961720E+00 -3.220288403E+01  3.224659958E+01  2.459820214E-07  0.00000E+00  9.000E+00
</event>
<event>
      6  10011  1.00000E+00  5.87640E+00 -1.00000E+00  2.26805E-01
      21    -1     0     0   511   501  0.000000000E+00  0.000000000E+00  1.247509555E-01  1.247509555E-01  0.000000000E+00  0.00000E+00  9.000E+00
       2    -1     0     0   501     0  0.000000000E+00  0.000000000E+00 -1.288557128E+03  1.288557128E+03  0.000000000E+00  0.00000E+00  9.000E+00
      23     2     1     2     0     0  5.367755529E+00  2.391495757E+00 -1.097661929E+03  1.097820945E+03  1.773657443E+01  0.00000E+00  9.000E+00
      11     1     3     3     0     0  9.682724034E+00 -2.795670724E+00 -4.020596289E+02  4.021859223E+02  5.109980971E-04  0.00000E+00  9.000E+00
     -11     1     3     3     0     0 -4.314968505E+00  5.187166481E+00 -6.956023001E+02  6.956350232E+02  5.112340661E-04  0.00000E+00  9.000E+00
       2     1     1     2   511     0 -5.367755529E+00 -2.391495757E+00 -1.907704483E+02  1.908609337E+02  2.308477966E-07  0.00000E+00  9.000E+00
</event>
<event>
      6  10011  1.00000E+00  2.73051E+01 -1.00000E+00  1.55898E-01
       2    -1     0     0   501     0  0.000000000E+00  0.000000000E+00  1.464656751E+03  1.464656751E+03  0.000000000E+00  0.00000E+00  9.000E+00
      21    -1     0     0   511   501  0.000000000E+00  0.000000000E+00 -2.709539043E+00  2.709539043E+00  0.000000000E+00  0.00000E+00  9.000E+00
      23     2     1     2     0     0  1.125418817E+01  2.487794413E+01  1.280439058E+03  1.283815810E+03  8.895663718E+01  0.00000E+00  9.000E+00
      11     1     3     3     0     0 -2.526669952E+01  5.485579861E+00  1.001004443E+03  1.001338300E+03  5.108842860E-04  0.00000E+00  9.000E+00
     -11     1     3     3     0     0  3.652088769E+01  1.939236427E+01  2.794346157E+02  2.824775096E+02  5.109260642E-04  0.00000E+00  9.000E+00
       2     1     1     2   511     0 -1.125418817E+01 -2.487794413E+01  1.815081535E+02  1.835504798E+02  4.191439984E-06  0.00000E+00  9.000E+00
</event>
<event>
      6  10011  1.00000E+00  2.61374E+01 -1.00000E+00  1.57280E-01
      21    -1     0     0   501   511  0.000000000E+00  0.000000000E+00  6.811795930E+00  6.811795930E+00  0.000000000E+00  0.00000E+00  9.000E+00
      -1    -1     0     0     0   501  0.000000000E+00  0.000000000E+00 -1.683779567E+02  1.683779567E+02  0.000000000E+00  0.00000E+00  9.000E+00
      23     2     1     2     0     0  2.251615307E+01 -1.327357764E+01 -1.192115847E+02  1.254195293E+02  2.890486814E+01  0.00000E+00  9.000E+00
      11     1     3     3     0     0 -4.551804017E+00 -1.110091465E+00 -4.860473722E+01  4.883002871E+01  5.110002268E-04  0.00000E+00  9.000E+00
     -11     1     3     3     0     0  2.706795709E+01 -1.216348617E+01 -7.060684746E+01  7.658950062E+01  5.109993959E-04  0.00000E+00  9.000E+00
      -1     1     1     2     0   511 -2.251615307E+01  1.327357764E+01 -4.235457613E+01  4.977022334E+01  4.768371582E-07  0.00000E+00  9.000E+00
</event>
<event>
      5  10011  1.00000E+00  8.94427E-01 -1.00000E+00  7.31609E-01
       2    -1     0     0   501     0  0.000000000E+00  0.000000000E+00  7.486581479E+02  7.486581479E+02  0.000000000E+00  0.00000E+00  9.000E+00
      -2    -1     0     0     0   501  0.000000000E+00  0.000000000E+00 -2.851487568E+00  2.851487568E+00  0.000000000E+00  0.00000E+00  9.000E+00
      23     2     1     2     0     0  0.000000000E+00  0.000000000E+00  7.458066603E+02  7.515096355E+02  9.240756250E+01  0.00000E+00  9.000E+00
      11     1     3     3     0     0  6.348134305E+00 -3.854893066E-01  7.450814509E+02  7.451085934E+02  5.109376902E-04  0.00000E+00  9.000E+00
     -11     1     3     3     0     0 -6.348134305E+00  3.854893066E-01  7.252094286E-01  6.401042113E+00  5.109986660E-04  0.00000E+00  9.000E+00
</event>
<event>
      6  10011  1.00000E+00  4.41732E+00 -1.00000E+00  2.53612E-01
      -2    -1     0     0     0   501  0.000000000E+00  0.000000000E+00  6.814225378E-01  6.814225378E-01  0.000000000E+00  0.00000E+00  9.000E+00
       2    -1     0     0   511     0  0.000000000E+00  0.000000000E+00 -2.062903755E+02  2.062903755E+02  0.000000000E+00  0.00000E+00  9.000E+00
      23     2     1     2     0     0  4.362189275E+00 -6.957313374E-01 -1.285906142E+02  1.298268873E+02  1.731940774E+01  0.00000E+00  9.000E+00
      11     1     3     3     0     0 -3.012121182E+00 -7.327979735E+00 -6.104633770E+01  6.155832607E+01  5.109985204E-04  0.00000E+00  9.000E+00
     -11     1     3     3     0     0  7.374310458E+00  6.632248398E+00 -6.754427647E+01  6.826856127E+01  5.109980346E-04  0.00000E+00  9.000E+00
      21     1     1     2   511   501 -4.362189275E+00  6.957313374E-01 -7.701833882E+01  7.714491073E+01  1.130918620E-06  0.00000E+00  9.000E+00
</event>
<event>
      6  10011  1.00000E+00  1.06846E+01 -1.00000E+00  1.92434E-01
      21    -1     0     0   511   501  0.000000000E+00  0.000000000E+00  1.826117810E+00  1.826117810E+00  0.000000000E+00  0.00000E+00  9.000E+00
       1    -1     0     0   501     0  0.000000000E+00  0.000000000E+00 -1.552411750E+03  1.552411750E+03  0.000000000E+00  0.00000E+00  9.000E+00
      23     2     1     2     0     0 -9.669259996E+00  4.546095274E+00 -1.477604697E+03  1.480478946E+03  9.158661946E+01  0.00000E+00  9.000E+00
      11     1     3     3     0     0  1.346754214E+01  5.505446108E+00 -1.383170163E+03  1.383246682E+03  5.116494926E-04  0.00000E+00  9.000E+00
     -11     1     3     3     0     0 -2.313680213E+01 -9.593508341E-01 -9.443453432E+01  9.723226439E+01  5.109539156E-04  0.00000E+00  9.000E+00
       1     1     1     2   511     0  9.669259996E+00 -4.546095274E+00 -7.298093497E+01  7.375892109E+01  7.589359032E-07  0.00000E+00  9.000E+00
</event>
<event>
      6  10011  1.00000E+00  2.55547E+01 -1.00000E+00  1.58003E-01
      21    -1     0     0   511   501  0.000000000E+00  0.000000000E+00  1.131989173E+02  1.131989173E+02  0.000000000E+00  0.00000E+00  9.000E+00
       2    -1     0     0   501     0  0.000000000E+00  0.000000000E+00 -4.003768910E+01  4.003768910E+01  0.000000000E+00  0.00000E+00  9.000E+00
      23     2     1     2     0     0 -1.818792879E+01 -1.795114319E+01 -2.968848591E+01  4.725968444E+01  2.643912409E+01  0.00000E+00  9.000E+00
      11     1     3     3     0     0 -2.112543295E+01 -1.640299162E+01 -3.306228371E+01  4.252595274E+01  5.109983440E-04  0.00000E+00  9.000E+00
     -11     1     3     3     0     0  2.937504164E+00 -1.548151567E+00  3.373797802E+00  4.733731705E+00  5.109989172E-04  0.00000E+00  9.000E+00
       2     1     1     2   511     0  1.818792879E+01  1.795114319E+01  1.028497141E+02  1.059769220E+02  1.054513813E-06  0.00000E+00  9.000E+00
</event>
<event>
      6  10011  1.00000E+00  2.16745E+00 -1.00000E+00  3.47331E-01
       2    -1     0     0   501     0  0.000000000E+00  0.000000000E+00  2.134638253E+02  2.134638253E+02  0.000000000E+00  0.00000E+00  9.000E+00
      21    -1     0     0   511   501  0.000000000E+00  0.000000000E+00 -7.535338977E-01  7.535338977E-01  0.000000000E+00  0.00000E+00  9.000E+00
      23     2     1     2     0     0 -4.637093409E-01 -2.117263288E+00  2.082580350E+02  2.092655497E+02  2.039517891E+01  0.00000E+00  9.000E+00
      11     1     3     3     0     0 -6.890930434E+00 -6.507817292E+00  5.505594405E+01  5.586585347E+01  5.109964135E-04  0.00000E+00  9.000E+00
     -11     1     3     3     0     0  6.427221093E+00  4.390554004E+00  1.532020909E+02  1.533996962E+02  5.109862343E-04  0.00000E+00  9.000E+00
       2     1     1     2   511     0  4.637093409E-01  2.117263288E+00  4.452256450E+00  4.951809536E+00  7.235603258E-08  0.00000E+00  9.000E+00
</event>
<event>
      5  10011  1.00000E+00  8.94427E-01 -1.00000E+00  7.26422E-01
       2    -1     0     0   501     0  0.000000000E+00  0.000000000E+00  5.288048945E+02  5.288048945E+02  0.000000000E+00  0.00000E+00  9.000E+00
      -2    -1     0     0     0   501  0.000000000E+00  0.000000000E+00 -1.324100896E-01  1.324100896E-01  0.000000000E+00  0.00000E+00  9.000E+00
      23     2     1     2     0     0  0.000000000E+00  0.000000000E+00  5.286724844E+02  5.289373045E+02  1.673548367E+01  0.00000E+00  9.000E+00
      11     1     3     3     0     0  5.651818706E+00 -5.134897066E+00  1.561869657E+02  1.563735223E+02  5.109954013E-04  0.00000E+00  9.000E+00
     -11     1     3     3     0     0 -5.651818706E+00  5.134897066E+00  3.724855187E+02  3.725637823E+02  5.109779623E-04  0.00000E+00  9.000E+00
</event>
<event>
      6  10011  1.00000E+00  1.74854E+00 -1.00000E+00  3.92439E-01
      -2    -1     0     0     0   501  0.000000000E+00  0.000000000E+00  2.537083070E+01  2.537083070E+01  0.000000000E+00  0.00000E+00  9.000E+00
       2    -1     0     0   511     0  0.000000000E+00  0.000000000E+00 -5.412333604E+00  5.412333604E+00  0.000000000E+00  0.00000E+00  9.000E+00
      23     2     1     2     0     0 -2.273419286E-01  1.733694667E+00  2.217901840E+01  2.795684223E+01  1.692981951E+01  0.00000E+00  9.000E+00
      11     1     3     3     0     0  5.001572846E+00 -1.848349244E+00  2.079706704E+01  2.146974904E+01  5.109988033E-04  0.00000E+00  9.000E+00
     -11     1     3     3     0     0 -5.228914775E+00  3.582043911E+00  1.381951362E+00  6.487093195E+00  5.109989359E-04  0.00000E+00  9.000E+00
      21     1     1     2   511   501  2.273419286E-01 -1.733694667E+00 -2.220521311E+00  2.826322070E+00  7.809793686E-08  0.00000E+00  9.000E+00
</event>
<event>
      6  10011  1.00000E+00  5.17815E+00 -1.00000E+00  2.35804E-01
      -2    -1     0     0     0   501  0.000000000E+00  0.000000000E+00  1.167690973E+01  1.167690973E+01  0.000000000E+00  0.00000E+00  9.000E+00
       2    -1     0     0   511     0  0.000000000E+00  0.000000000E+00 -2.897908935E+02  2.897908935E+02  0.000000000E+00  0.00000E+00  9.000E+00
      23     2     1     2     0     0  5.127689059E+00  7.211108923E-01 -2.375976531E+02  2.606219191E+02  1.069781603E+02  0.00000E+00  9.000E+00
      11     1     3     3     0     0  7.794199741E+00  4.565595124E+01 -1.880938785E+02  1.937124740E+02  5.110083693E-04  0.00000E+00  9.000E+00
     -11     1     3     3     0     0 -2.666510681E+00 -4.493484035E+01 -4.950377456E+01  6.690944516E+01  5.110025665E-04  0.00000E+00  9.000E+00
      21     1     1     2   511   501 -5.127689059E+00 -7.211108923E-01 -4.051633066E+01  4.084588408E+01  6.426530675E-07  0.00000E+00  9.000E+00
</event>
<event>
      6  10011  1.00000E+00  1.90974E+01 -1.00000E+00  1.67999E-01
       2    -1     0     0   501     0  0.000000000E+00  0.000000000E+00  2.709137211E+02  2.709137211E+02  0.000000000E+00  0.00000E+00  9.000E+00
      -2    -1     0     0     0   511  0.000000000E+00  0.000000000E+00 -1.015614350E+01  1.015614350E+01  0.000000000E+00  0.00000E+00  9.000E+00
      23     2     1     2     0     0  1.893052494E+01 -2.518821238E+00  2.416146764E+02  2.540298960E+02  7.608434127E+01  0.00000E+00  9.000E+00
      11     1     3     3     0     0  1.882551226E+01 -7.135837584E+00  1.019975281E+01  2.256889558E+01  5.109984927E-04  0.00000E+00  9.000E+00
     -11     1     3     3     0     0  1.050126761E-01  4.617016346E+00  2.314149236E+02  2.314610004E+02  5.109850715E-04  0.00000E+00  9.000E+00
      21     1     1     2   501   511 -1.893052494E+01  2.518821238E+00  1.914290122E+01  2.703996860E+01  7.814234854E-08  0.00000E+00  9.000E+00
</event>
<event>
      6  10011  1.00000E+00  2.99295E+01 -1.00000E+00  1.53076E-01
      21    -1     0     0   511   501  0.000000000E+00  0.000000000E+00  2.643263184E+01  2.643263184E+01  0.000000000E+00  0.00000E+00  9.000E+00
       3    -1     0     0   501     0  0.000000000E+00  0.000000000E+00 -1.845639211E+02  1.845639211E+02  0.000000000E+00  0.00000E+00  9.000E+00
      23     2     1     2     0     0 -1.025194691E+01 -2.811890912E+01 -1.535647474E+02  1.807206752E+02  9.045471433E+01  0.00000E+00  9.000E+00
      11     1     3     3     0     0 -2.139847199E+00 -6.088423289E+01 -1.082522051E+02  1.242175860E+02  5.110009407E-04  0.00000E+00  9.000E+00
     -11     1     3     3     0     0 -8.112099707E+00  3.276532377E+01 -4.531254236E+01  5.650308929E+01  5.109969343E-04  0.00000E+00  9.000E+00
       3     1     1     2   511     0  1.025194691E+01  2.811890912E+01 -4.566541833E+00  3.027587768E+01  3.463718747E-07  0.00000E+00  9.000E+00
</event>
<event>
      6  10011  1.00000E+00  2.59187E+00 -1.00000E+00  3.17411E-01
      -3    -1     0     0     0   501  0.000000000E+00  0.000000000E+00  1.194394923E+02  1.194394923E+02  0.000000000E+00  0.00000E+00  9.000E+00
      21    -1     0     0   501   511  0.000000000E+00  0.000000000E+00 -1.605806652E+00  1.605806652E+00  0.000000000E+00  0.00000E+00  9.000E+00
      23     2     1     2     0     0 -2.493635348E+00 -7.068193547E-01  1.124792808E+02  1.150965628E+02  2.426751618E+01  0.00000E+00  9.000E+00
      11     1     3     3     0     0 -9.815566905E+00 -3.274631210E+00  9.903351424E+01  9.957261424E+01  5.109979868E-04  0.00000E+00  9.000E+00
     -11     1     3     3     0     0  7.321931557E+00  2.567811855E+00  1.344576658E+01  1.552394855E+01  5.109986115E-04  0.00000E+00  9.000E+00
      -3     1     1     2     0   511  2.493635348E+00  7.068193547E-01  5.354404816E+00  5.948736150E+00  4.617331645E-08  0.00000E+00  9.000E+00
</event>
<event>
      6  10011  1.00000E+00  4.26262E+00 -1.00000E+00  2.57025E-01
       2    -1     0     0   501     0  0.000000000E+00  0.000000000E+00  2.029980023E+02  2.029980023E+02  0.000000000E+00  0.00000E+00  9.000E+00
      -2    -1     0     0     0   511  0.000000000E+00  0.000000000E+00 -8.710096610E-01  8.710096610E-01  0.000000000E+00  0.00000E+00  9.000E+00
      23     2     1     2     0     0 -1.623953585E+00  3.941157779E+00  1.860874864E+02  1.872727560E+02  2.060006344E+01  0.00000E+00  9.000E+00
      11     1     3     3     0     0 -5.149336751E+00  7.654599544E+00  3.825661436E+01  3.935323501E+01  5.109999650E-04  0.00000E+00  9.000E+00
     -11     1     3     3     0     0  3.525383166E+00 -3.713441765E+00  1.478308720E+02  1.479195210E+02  5.110008712E-04  0.00000E+00  9.000E+00
      21     1     1     2   501   511  1.623953585E+00 -3.941157779E+00  1.603950621E+01  1.659625589E+01  3.102967802E-07  0.00000E+00  9.000E+00
</event>
<event>
      6  10011  1.00000E+00  1.03034E+01 -1.00000E+00  1.94211E-01
      -4    -1     0     0     0   501  0.000000000E+00  0.000000000E+00  2.555450013E+00  2.555450013E+00  0.000000000E+00  0.00000E+00  9.000E+00
       4    -1     0     0   511     0  0.000000000E+00  0.000000000E+00 -1.101588335E+02  1.101588335E+02  0.000000000E+00  0.00000E+00  9.000E+00
      23     2     1     2     0     0 -9.368203519E+00 -4.289069953E+00 -5.363728653E+01  5.777341550E+01  1.883214467E+01  0.00000E+00  9.000E+00
      11     1     3     3     0     0 -4.782060193E+00 -1.037349175E+01 -4.415867370E+01  4.561212442E+01  5.109976379E-04  0.00000E+00  9.000E+00
     -11     1     3     3     0     0 -4.586143326E+00  6.084421793E+00 -9.478612834E+00  1.216129108E+01  5.109989940E-04  0.00000E+00  9.000E+00
      21     1     1     2   511   501  9.368203519E+00  4.289069953E+00 -5.396609698E+01  5.494086804E+01  5.181234673E-07  0.00000E+00  9.000E+00
</event>
<event>
      6  10011  1.00000E+00  1.28031E+01 -1.00000E+00  1.84066E-01
      -5    -1     0     0     0   501  0.000000000E+00  0.000000000E+00  6.568178708E+00  6.568178708E+00  0.000000000E+00  0.00000E+00  9.000E+00
      21    -1     0     0   501   511  0.000000000E+00  0.000000000E+00 -5.256779251E+01  5.256779251E+01  0.000000000E+00  0.00000E+00  9.000E+00
      23     2     1     2     0     0  1.250865020E+01  2.730217157E+00 -2.335859872E+01  3.312566596E+01  1.969175451E+01  0.00000E+00  9.000E+00
      11     1     3     3     0     0  8.415008741E+00  5.237756260E+00 -6.697749201E-01  9.934538815E+00  5.109989383E-04  0.00000E+00  9.000E+00
     -11     1     3     3     0     0  4.093641458E+00 -2.507539103E+00 -2.268882380E+01  2.319112715E+01  5.109988041E-04  0.00000E+00  9.000E+00
      -5     1     1     2     0   511 -1.250865020E+01 -2.730217157E+00 -2.264101508E+01  2.601030526E+01  3.509690080E-07  0.00000E+00  9.000E+00
</event>
<event>
      6  10011  1.00000E+00  4.55738E+01 -1.00000E+00  1.41382E-01
      21    -1     0     0   501   511  0.000000000E+00  0.000000000E+00  7.121819877E+00  7.121819877E+00  0.000000000E+00  0.00000E+00  9.000E+00
      -3    -1     0     0     0   501  0.000000000E+00  0.000000000E+00 -8.033725636E+02  8.033725636E+02  0.000000000E+00  0.00000E+00  9.000E+00
      23     2     1     2     0     0  1.044628464E+01  4.436045082E+01 -6.488959528E+02  6.562529854E+02  8.674703962E+01  0.00000E+00  9.000E+00
      11     1     3     3     0     0 -3.683242056E+01  6.617785413E+00 -2.359213383E+02  2.388708859E+02  5.110079626E-04  0.00000E+00  9.000E+00
     -11     1     3     3     0     0  4.727870519E+01  3.774266541E+01 -4.129746145E+02  4.173820995E+02  5.110209981E-04  0.00000E+00  9.000E+00
      -3     1     1     2     0   511 -1.044628464E+01 -4.436045082E+01 -1.473547909E+02  1.542413981E+02  2.170051147E-06  0.00000E+00  9.000E+00
</event>
<event>
      6  10011  1.00000E+00  9.64858E+00 -1.00000E+00  1.97511E-01
      -1    -1     0     0     0   511  0.000000000E+00  0.000000000E+00  1.903641391E+02  1.903641391E+02  0.000000000E+00  0.00000E+00  9.000E+00
       1    -1     0     0   501     0  0.000000000E+00  0.000000000E+00 -2.036436941E+01  2.036436941E+01  0.000000000E+00  0.00000E+00  9.000E+00
      23     2     1     2     0     0  9.437586028E+00  2.006763618E+00  8.457665890E+01  1.247622187E+02  9.121022338E+01  0.00000E+00  9.000E+00
      11     1     3     3     0     0  3.088897048E+01 -2.345556296E+00  9.542904395E+01  1.003311146E+02  5.110007677E-04  0.00000E+00  9.000E+00
     -11     1     3     3     0     0 -2.145138445E+01  4.352319915E+00 -1.085238505E+01  2.443110405E+01  5.109991977E-04  0.00000E+00  9.000E+00
      21     1     1     2   501   511 -9.437586028E+00 -2.006763618E+00  8.542311081E+01  8.596628985E+01  7.977341899E-07  0.00000E+00  9.000E+00
</event>
<event>
      6  10011  1.00000E+00  4.95921E+00 -1.00000E+00  2.43160E-01
      21    -1     0     0   511   501  0.000000000E+00  0.000000000E+00  1.271498732E+02  1.271498732E+02  0.000000000E+00  0.00000E+00  9.000E+00
       1    -1     0     0   501     0  0.000000000E+00  0.000000000E+00 -3.850677758E+01  3.850677758E+01  0.000000000E+00  0.00000E+00  9.000E+00
      23     2     1     2     0     0 -4.298265212E+00 -2.473594337E+00  1.834134884E+01  9.518020540E+01  9.326453061E+01  0.00000E+00  9.000E+00
      11     1     3     3     0     0  3.214089850E+01 -2.029031005E+01 -1.675860250E+01  4.154015884E+01  5.109998782E-04  0.00000E+00  9.000E+00
     -11     1     3     3     0     0 -3.643916371E+01  1.781671572E+01  3.509995133E+01  5.364004656E+01  5.109987829E-04  0.00000E+00  9.000E+00
       1     1     1     2   511     0  4.298265212E+00  2.473594337E+00  7.030174676E+01  7.047644536E+01  1.083387180E-06  0.00000E+00  9.000E+00
</event>
<event>
      6  10011  1.00000E+00  7.61310E+00 -1.00000E+00  2.10458E-01
      -2    -1     0     0     0   501  0.000000000E+00  0.000000000E+00  5.205493600E+00  5.205493600E+00  0.000000000E+00  0.00000E+00  9.000E+00
      21    -1     0     0   501   511  0.000000000E+00  0.000000000E+00 -4.418658216E+01  4.418658216E+01  0.000000000E+00  0.00000E+00  9.000E+00
      23     2     1     2     0     0 -6.997892564E+00 -2.998129516E+00 -3.602717157E+01  4.122599307E+01  1.853823433E+01  0.00000E+00  9.000E+00
      11     1     3     3     0     0 -1.317801502E+01 -2.218780940E+00 -2.023275456E+01  2.424762722E+01  5.109987822E-04  0.00000E+00  9.000E+00
     -11     1     3     3     0     0  6.180122454E+00 -7.793485761E-01 -1.579441701E+01  1.697836584E+01  5.109986460E-04  0.00000E+00  9.000E+00
      -2     1     1     2     0   511  6.997892564E+00  2.998129516E+00 -2.953916987E+00  8.166082689E+00  1.238799065E-07  0.00000E+00  9.000E+00
</event>
<event>
      5  10011  1.00000E+00  8.94427E-01 -1.00000E+00  6.99935E-01
      -1    -1     0     0     0   501  0.000000000E+00  0.000000000E+00  2.429383031E-01  2.429383031E-01  0.000000000E+00  0.00000E+00  9.000E+00
       1    -1     0     0   501     0  0.000000000E+00  0.000000000E+00 -3.155474997E+02  3.155474997E+02  0.000000000E+00  0.00000E+00  9.000E+00
      23     2     1     2     0     0  0.000000000E+00  0.000000000E+00 -3.153045613E+02  3.157904380E+02  1.751097646E+01  0.00000E+00  9.000E+00
      11     1     3     3     0     0 -1.054655032E+00  5.725980083E+00 -3.972764084E+01  4.015201853E+01  5.109988017E-04  0.00000E+00  9.000E+00
     -11     1     3     3     0     0  1.054655032E+00 -5.725980083E+00 -2.755769205E+02  2.756384194E+02  5.110044795E-04  0.00000E+00  9.000E+00
</event>
<event>
      6  10011  1.00000E+00  2.36104E+00 -1.00000E+00  3.32297E-01
      -2    -1     0     0     0   511  0.000000000E+00  0.000000000E+00  1.925149231E+00  1.925149231E+00  0.000000000E+00  0.00000E+00  9.000E+00
       2    -1     0     0   501     0  0.000000000E+00  0.000000000E+00 -1.174724289E+02  1.174724289E+02  0.000000000E+00  0.00000E+00  9.000E+00
      23     2     1     2     0     0 -1.124226184E+00  2.076201856E+00 -1.156745056E+02  1.170331151E+02  1.762340209E+01  0.00000E+00  9.000E+00
      11     1     3     3     0     0 -1.755495364E+00  5.772368736E+00 -1.103828160E+02  1.105475828E+02  5.110026128E-04  0.00000E+00  9.000E+00
     -11     1     3     3     0     0  6.312691800E-01 -3.696166879E+00 -5.291689589E+00  6.485532311E+00  5.109987397E-04  0.00000E+00  9.000E+00
      21     1     1     2   501   511  1.124226184E+00 -2.076201856E+00  1.272259320E-01  2.364462962E+00  6.075173473E-08  0.00000E+00  9.000E+00
</event>
<event>
      5  10011  1.00000E+00  8.94427E-01 -1.00000E+00  7.38684E-01
      -1    -1     0     0     0   501  0.000000000E+00  0.000000000E+00  4.536389537E-01  4.536389537E-01  0.000000000E+00  0.00000E+00  9.000E+00
       1    -1     0     0   501     0  0.000000000E+00  0.000000000E+00 -3.599636176E+02  3.599636176E+02  0.000000000E+00  0.00000E+00  9.000E+00
      23     2     1     2     0     0  0.000000000E+00  0.000000000E+00 -3.595099786E+02  3.604172565E+02  2.555727050E+01  0.00000E+00  9.000E+00
      11     1     3     3     0     0  1.204520894E+00  1.151728456E+01 -1.035569333E+02  1.042023855E+02  5.109970403E-04  0.00000E+00  9.000E+00
     -11     1     3     3     0     0 -1.204520894E+00 -1.151728456E+01 -2.559530454E+02  2.562148711E+02  5.110236122E-04  0.00000E+00  9.000E+00
</event>
<event>
      6  10011  1.00000E+00  1.65499E+01 -1.00000E+00  1.73407E-01
       2    -1     0     0   501     0  0.000000000E+00  0.000000000E+00  3.206601964E+01  3.206601964E+01  0.000000000E+00  0.00000E+00  9.000E+00
      21    -1     0     0   511   501  0.000000000E+00  0.000000000E+00 -1.514422710E+02  1.514422710E+02  0.000000000E+00  0.00000E+00  9.000E+00
      23     2     1     2     0     0 -8.566065316E+00  1.416052218E+01 -4.332225477E+01  1.056744403E+02  9.495457707E+01  0.00000E+00  9.000E+00
      11     1     3     3     0     0 -3.009553247E+01 -3.212010609E+01 -1.139148229E+01  4.546656089E+01  5.109983213E-04  0.00000E+00  9.000E+00
     -11     1     3     3     0     0  2.152946715E+01  4.628062827E+01 -3.193077247E+01  6.020787939E+01  5.109975876E-04  0.00000E+00  9.000E+00
       2     1     1     2   511     0  8.566065316E+00 -1.416052218E+01 -7.605399662E+01  7.783385039E+01  8.183437716E-07  0.00000E+00  9.000E+00
</event>
<event>
      6  10011  1.00000E+00  3.44735E+00 -1.00000E+00  2.79553E-01
      -2    -1     0     0     0   511  0.000000000E+00  0.000000000E+00  9.602741635E+01  9.602741635E+01  0.000000000E+00  0.00000E+00  9.000E+00
       2    -1     0     0   501     0  0.000000000E+00  0.000000000E+00 -1.451682956E+02  1.451682956E+02  0.000000000E+00  0.00000E+00  9.000E+00
      23     2     1     2     0     0  2.155968528E+00 -2.689983890E+00 -1.310054282E+02  1.592586106E+02  9.049308597E+01  0.00000E+00  9.000E+00
      11     1     3     3     0     0  1.206490422E+00  9.067788989E+00 -1.424970295E+02  1.427903492E+02  5.110100953E-04  0.00000E+00  9.000E+00
     -11     1     3     3     0     0  9.494781055E-01 -1.175777288E+01  1.149160128E+01  1.646826136E+01  5.109986922E-04  0.00000E+00  9.000E+00
      21     1     1     2   501   511 -2.155968528E+00  2.689983890E+00  8.186454893E+01  8.193710140E+01  4.037087317E-07  0.00000E+00  9.000E+00
</event>
<event>
      6  10011  1.00000E+00  1.09921E+01 -1.00000E+00  1.91070E-01
      -2    -1     0     0     0   501  0.000000000E+00  0.000000000E+00  6.988506859E-01  6.988506859E-01  0.000000000E+00  0.00000E+00  9.000E+00
       2    -1     0     0   511     0  0.000000000E+00  0.000000000E+00 -8.511939738E+02  8.511939738E+02  0.000000000E+00  0.00000E+00  9.000E+00
      23     2     1     2     0     0  1.852381947E-01  1.099051611E+01 -3.546587801E+02  3.559346560E+02  2.803218395E+01  0.00000E+00  9.000E+00
      11     1     3     3     0     0 -5.091877959E+00  1.774828320E+01 -3.036010872E+02  3.041620438E+02  5.110222634E-04  0.00000E+00  9.000E+00
     -11     1     3     3     0     0  5.277116153E+00 -6.757767089E+00 -5.105769290E+01  5.177261222E+01  5.110015117E-04  0.00000E+00  9.000E+00
      21     1     1     2   511   501 -1.852381947E-01 -1.099051611E+01 -4.958363430E+02  4.959581684E+02  8.049937733E-06  0.00000E+00  9.000E+00
</event>
<event>
      6  10011  1.00000E+00  2.65077E+01 -1.00000E+00  1.56832E-01
      21    -1     0     0   511   501  0.000000000E+00  0.000000000E+00  3.695180101E+00  3.695180101E+00  0.000000000E+00  0.00000E+00  9.000E+00
       2    -1     0     0   501     0  0.000000000E+00  0.000000000E+00 -1.031935031E+03  1.031935031E+03  0.000000000E+00  0.00000E+00  9.000E+00
      23     2     1     2     0     0  1.138034816E+01 -2.394041109E+01 -8.842666757E+02  8.892371417E+02  9.006933290E+01  0.00000E+00  9.000E+00
      11     1     3     3     0     0  3.049856558E+01  2.112814803E+01 -2.146221365E+02  2.178054697E+02  5.110030751E-04  0.00000E+00  9.000E+00
     -11     1     3     3     0     0 -1.911821743E+01 -4.506855911E+01 -6.696445393E+02  6.714316720E+02  5.110021018E-04  0.00000E+00  9.000E+00
       2     1     1     2   511     0 -1.138034816E+01  2.394041109E+01 -1.439731754E+02  1.463930696E+02  9.452552514E-07  0.00000E+00  9.000E+00
</event>
<event>
      6  10011  1.00000E+00  1.30345E+00 -1.00000E+00  4.98253E-01
       2    -1     0     0   511     0  0.000000000E+00  0.000000000E+00  1.075025496E+03  1.075025496E+03  0.000000000E+00  0.00000E+00  9.000E+00
      -2    -1     0     0     0   501  0.000000000E+00  0.000000000E+00 -2.443812383E-01  2.443812383E-01  0.000000000E+00  0.00000E+00  9.000E+00
      23     2     1     2     0     0  9.992455596E-01  8.369480030E-01  1.000107007E+03  1.000584394E+03  3.087727213E+01  0.00000E+00  9.000E+00
      11     1     3     3     0     0 -5.878464554E+00 -1.530363941E+00  9.425536472E+02  9.425732206E+02  5.110057726E-04  0.00000E+00  9.000E+00
     -11     1     3     3     0     0  6.877710114E+00  2.367311944E+00  5.755335953E+01  5.801117354E+01  5.109885300E-04  0.00000E+00  9.000E+00
      21     1     1     2   511   501 -9.992455596E-01 -8.369480030E-01  7.467410807E+01  7.468548312E+01  4.282625873E-07  0.00000E+00  9.000E+00
</event>
<event>
      6  10011  1.00000E+00  4.83565E+00 -1.00000E+00  2.45361E-01
       1    -1     0     0   501     0  0.000000000E+00  0.000000000E+00  1.191878997E+01  1.191878997E+01  0.000000000E+00  0.00000E+00  9.000E+00
      -1    -1     0     0     0   511  0.000000000E+00  0.000000000E+00 -1.962811126E+02  1.962811126E+02  0.000000000E+00  0.00000E+00  9.000E+00
      23     2     1     2     0     0  3.742540913E+00  3.062178989E+00 -1.709423848E+02  1.939353211E+02  9.146707769E+01  0.00000E+00  9.000E+00
      11     1     3     3     0     0  2.842055247E+01  3.099870333E+01 -4.092979690E+01  5.868471424E+01  5.109973908E-04  0.00000E+00  9.000E+00
     -11     1     3     3     0     0 -2.467801156E+01 -2.793652434E+01 -1.300125879E+02  1.352506069E+02  5.110080843E-04  0.00000E+00  9.000E+00
      21     1     1     2   501   511 -3.742540913E+00 -3.062178989E+00 -1.341993781E+01  1.426458143E+01  1.303319311E-07  0.00000E+00  9.000E+00
</event>
<event>
      6  10011  1.00000E+00  3.84959E+00 -1.00000E+00  2.67343E-01
       1    -1     0     0   501     0  0.000000000E+00  0.000000000E+00  2.841822297E+00  2.841822297E+00  0.000000000E+00  0.00000E+00  9.000E+00
      -1    -1     0     0     0   511  0.000000000E+00  0.000000000E+00 -1.165781653E+02  1.165781653E+02  0.000000000E+00  0.00000E+00  9.000E+00
      23     2     1     2     0     0 -3.806711417E+00  5.729993715E-01 -7.593881553E+01  8.142692950E+01  2.913454590E+01  0.00000E+00  9.000E+00
      11     1     3     3     0     0  2.504367919E+00 -3.169659519E-01  2.004535091E+00  3.223427877E+00  5.109989058E-04  0.00000E+00  9.000E+00
     -11     1     3     3     0     0 -6.311079336E+00  8.899653234E-01 -7.794335062E+01  7.820350163E+01  5.109998596E-04  0.00000E+00  9.000E+00
      21     1     1     2   501   511  3.806711417E+00 -5.729993715E-01 -3.779752750E+01  3.799305812E+01  2.511188320E-07  0.00000E+00  9.000E+00
</event>
<event>
      6  10011  1.00000E+00  5.33421E+00 -1.00000E+00  2.33625E-01
      21    -1     0     0   511   501  0.000000000E+00  0.000000000E+00  9.029884775E-01  9.029884775E-01  0.000000000E+00  0.00000E+00  9.000E+00
       2    -1     0     0   501     0  0.000000000E+00  0.000000000E+00 -2.001723786E+03  2.001723786E+03  0.000000000E+00  0.00000E+00  9.000E+00
      23     2     1     2     0     0  2.962657449E+00  4.435813769E+00 -1.987393637E+03  1.988178853E+03  5.561682265E+01  0.00000E+00  9.000E+00
      11     1     3     3     0     0 -2.202384618E+01  1.428592067E+01 -6.747370098E+02  6.752474878E+02  5.107725639E-04  0.00000E+00  9.000E+00
     -11     1     3     3     0     0  2.498650363E+01 -9.850106905E+00 -1.312656627E+03  1.312931366E+03  5.108752178E-04  0.00000E+00  9.000E+00
       2     1     1     2   511     0 -2.962657449E+00 -4.435813769E+00 -1.342716021E+01  1.444792076E+01  5.301966332E-07  0.00000E+00  9.000E+00
</event>
<event>
      6  10011  1.00000E+00  2.17416E+00 -1.00000E+00  3.46762E-01
       2    -1     0     0   501     0  0.000000000E+00  0.000000000E+00  6.703360818E+01  6.703360818E+01  0.000000000E+00  0.00000E+00  9.000E+00
      -2    -1     0     0     0   511  0.000000000E+00  0.000000000E+00 -2.721609320E+00  2.721609320E+00  0.000000000E+00  0.00000E+00  9.000E+00
      23     2     1     2     0     0 -1.856497344E+00 -1.131536818E+00  6.441749099E+01  6.757850288E+01  2.031043940E+01  0.00000E+00  9.000E+00
      11     1     3     3     0     0  6.661928168E+00 -6.739530634E+00  4.018622897E+01  4.128844340E+01  5.109986074E-04  0.00000E+00  9.000E+00
     -11     1     3     3     0     0 -8.518425512E+00  5.607993816E+00  2.423126202E+01  2.629005948E+01  5.109985956E-04  0.00000E+00  9.000E+00
      21     1     1     2   501   511  1.856497344E+00  1.131536818E+00 -1.054921237E-01  2.176714622E+00  2.145329397E-08  0.00000E+00  9.000E+00
</event>
<event>
      6  10011  1.00000E+00  1.96481E+00 -1.00000E+00  3.66488E-01
       2    -1     0     0   501     0  0.000000000E+00  0.000000000E+00  1.614305571E+02  1.614305571E+02  0.000000000E+00  0.00000E+00  9.000E+00
      -2    -1     0     0     0   511  0.000000000E+00  0.000000000E+00 -1.762450556E+00  1.762450556E+00  0.000000000E+00  0.00000E+00  9.000E+00
      23     2     1     2     0     0 -1.964609953E+00 -2.792934681E-02  1.525571347E+02  1.558155831E+02  3.163789059E+01  0.00000E+00  9.000E+00
      11     1     3     3     0     0 -1.470598104E+00 -1.567636654E+01  6.584348795E+01  6.769989684E+01  5.110019027E-04  0.00000E+00  9.000E+00
     -11     1     3     3     0     0 -4.940118484E-01  1.564843719E+01  8.671364675E+01  8.811568628E+01  5.110029108E-04  0.00000E+00  9.000E+00
      21     1     1     2   501   511  1.964609953E+00  2.792934681E-02  7.110971873E+00  7.377424570E+00  4.667775365E-08  0.00000E+00  9.000E+00
</event>
<event>
      6  10011  1.00000E+00  2.66960E+00 -1.00000E+00  3.12987E-01
      21    -1     0     0   511   501  0.000000000E+00  0.000000000E+00  1.130363710E+01  1.130363710E+01  0.000000000E+00  0.00000E+00  9.000E+00
       1    -1     0     0   501     0  0.000000000E+00  0.000000000E+00 -2.076896047E+02  2.076896047E+02  0.000000000E+00  0.00000E+00  9.000E+00
      23     2     1     2     0     0  1.669000379E+00 -2.083560498E+00 -1.963855605E+02  2.163236376E+02  9.067249314E+01  0.00000E+00  9.000E+00
      11     1     3     3     0     0 -9.383151449E+00 -4.444907480E+01 -1.195276150E+02  1.278695215E+02  5.110020887E-04  0.00000E+00  9.000E+00
     -11     1     3     3     0     0  1.105215183E+01  4.236551430E+01 -7.685794546E+01  8.845411602E+01  5.109995346E-04  0.00000E+00  9.000E+00
       1     1     1     2   511     0 -1.669000379E+00  2.083560498E+00 -4.071051150E-04  2.669604236E+00  7.134586597E-08  0.00000E+00  9.000E+00
</event>
<event>
      6  10011  1.00000E+00  1.49982E+01 -1.00000E+00  1.77341E-01
       3    -1     0     0   501     0  0.000000000E+00  0.000000000E+00  2.305237403E+02  2.305237403E+02  0.000000000E+00  0.00000E+00  9.000E+00
      21    -1     0     0   511   501  0.000000000E+00  0.000000000E+00 -1.471941403E+01  1.471941403E+01  0.000000000E+00  0.00000E+00  9.000E+00
      23     2     1     2     0     0  1.466309127E+01 -3.152625126E+00  2.059906521E+02  2.273196086E+02  9.495846672E+01  0.00000E+00  9.000E+00
      11     1     3     3     0     0  2.452723544E+01  3.808158490E+01  1.523803077E+02  1.589702820E+02  5.110082842E-04  0.00000E+00  9.000E+00
     -11     1     3     3     0     0 -9.864144175E+00 -4.123421002E+01  5.361034443E+01  6.834932660E+01  5.110003762E-04  0.00000E+00  9.000E+00
       3     1     1     2   511     0 -1.466309127E+01  3.152625126E+00  9.813674129E+00  1.792354570E+01  4.928095846E-08  0.00000E+00  9.000E+00
</event>
<event>
      6  10011  1.00000E+00  3.44887E+00 -1.00000E+00  2.79502E-01
       2    -1     0     0   501     0  0.000000000E+00  0.000000000E+00  4.801420405E+01  4.801420405E+01  0.000000000E+00  0.00000E+00  9.000E+00
      -2    -1     0     0     0   511  0.000000000E+00  0.000000000E+00 -3.780103129E+01  3.780103129E+01  0.000000000E+00  0.00000E+00  9.000E+00
      23     2     1     2     0     0 -3.431516595E+00 -3.455407475E-01  4.509456758E+01  5.076375308E+01  2.305523577E+01  0.00000E+00  9.000E+00
      11     1     3     3     0     0 -1.417514179E+00 -2.383805607E-01  4.755816762E+01  4.757988524E+01  5.109986657E-04  0.00000E+00  9.000E+00
     -11     1     3     3     0     0 -2.014002416E+00 -1.071601868E-01 -2.463600035E+00  3.183867841E+00  5.109988326E-04  0.00000E+00  9.000E+00
      21     1     1     2   501   511  3.431516595E+00  3.455407475E-01 -3.488139482E+01  3.505148226E+01  3.432122709E-07  0.00000E+00  9.000E+00
</event>
<event>
      6  10011  1.00000E+00  2.04821E+00 -1.00000E+00  3.58104E-01
      -1    -1     0     0     0   501  0.000000000E+00  0.000000000E+00  8.643075553E+00  8.643075553E+00  0.000000000E+00  0.00000E+00  9.000E+00
       1    -1     0     0   511     0  0.000000000E+00  0.000000000E+00 -2.675735743E+02  2.675735743E+02  0.000000000E+00  0.00000E+00  9.000E+00
      23     2     1     2     0     0  1.998943380E+00  4.465324925E-01 -2.245679338E+02  2.417930964E+02  8.960440496E+01  0.00000E+00  9.000E+00
      11     1     3     3     0     0  6.367957767E+00  4.145267179E+01 -6.806496050E+01  7.994819406E+01  5.109950393E-04  0.00000E+00  9.000E+00
     -11     1     3     3     0     0 -4.369014387E+00 -4.100613930E+01 -1.565029733E+02  1.618449023E+02  5.109918103E-04  0.00000E+00  9.000E+00
      21     1     1     2   511   501 -1.998943380E+00 -4.465324925E-01 -3.436256489E+01  3.442355344E+01  3.232212657E-07  0.00000E+00  9.000E+00
</event>
<event>
      6  10011  1.00000E+00  4.95920E+00 -1.00000E+00  2.43161E-01
       1    -1     0     0   511     0  0.000000000E+00  0.000000000E+00  1.112530982E+03  1.112530982E+03  0.000000000E+00  0.00000E+00  9.000E+00
      -1    -1     0     0     0   501  0.000000000E+00  0.000000000E+00 -2.247446769E+00  2.247446769E+00  0.000000000E+00  0.00000E+00  9.000E+00
      23     2     1     2     0     0 -3.817541600E+00  3.165446689E+00  8.780471952E+02  8.824891451E+02  8.829281139E+01  0.00000E+00  9.000E+00
      11     1     3     3     0     0 -2.860686626E+01  3.463234428E+01  5.841465811E+02  5.858711294E+02  5.110917248E-04  0.00000E+00  9.000E+00
     -11     1     3     3     0     0  2.478932466E+01 -3.146689759E+01  2.939006141E+02  2.966180157E+02  5.110389414E-04  0.00000E+00  9.000E+00
      21     1     1     2   511   501  3.817541600E+00 -3.165446689E+00  2.322363396E+02  2.322892833E+02  3.096000889E-06  0.00000E+00  9.000E+00
</event>
<event>
      6  10011  1.00000E+00  9.99044E-01 -1.00000E+00  6.52244E-01
       2    -1     0     0   511     0  0.000000000E+00  0.000000000E+00  3.184932789E+02  3.184932789E+02  0.000000000E+00  0.00000E+00  9.000E+00
      -2    -1     0     0     0   501  0.000000000E+00  0.000000000E+00 -3.523432995E-01  3.523432995E-01  0.000000000E+00  0.00000E+00  9.000E+00
      23     2     1     2     0     0 -2.898198404E-02  9.986238513E-01  2.538341558E+02  2.545310825E+02  1.879614891E+01  0.00000E+00  9.000E+00
      11     1     3     3     0     0 -4.907021300E+00 -7.448297399E+00  1.053668891E+02  1.057437341E+02  5.110032063E-04  0.00000E+00  9.000E+00
     -11     1     3     3     0     0  4.878039316E+00  8.446921250E+00  1.484672667E+02  1.487873484E+02  5.110096225E-04  0.00000E+00  9.000E+00
      21     1     1     2   511   501  2.898198404E-02 -9.986238513E-01  6.430677983E+01  6.431453973E+01  1.098044719E-06  0.00000E+00  9.000E+00
</event>
<event>
      6  10011  1.00000E+00  8.18651E+00 -1.00000E+00  2.06305E-01
       2    -1     0     0   501     0  0.000000000E+00  0.000000000E+00  7.133620640E+01  7.133620640E+01  0.000000000E+00  0.00000E+00  9.000E+00
      21    -1     0     0   511   501  0.000000000E+00  0.000000000E+00 -1.493945839E+01  1.493945839E+01  0.000000000E+00  0.00000E+00  9.000E+00
      23     2     1     2     0     0  4.214430106E+00 -7.018375264E+00  6.812877249E+01  7.196974257E+01  2.170472741E+01  0.00000E+00  9.000E+00
      11     1     3     3     0     0  1.163914714E+01 -7.121215730E+00  5.686144551E+01  5.847568251E+01  5.109994746E-04  0.00000E+00  9.000E+00
     -11     1     3     3     0     0 -7.424717036E+00  1.028404655E-01  1.126732698E+01  1.349406006E+01  5.109987049E-04  0.00000E+00  9.000E+00
       2     1     1     2   511     0 -4.214430106E+00  7.018375264E+00 -1.173202448E+01  1.430592223E+01  1.673480678E-07  0.00000E+00  9.000E+00
</event>
<event>
      6  10011  1.00000E+00  3.97762E+00 -1.00000E+00  2.63937E-01
       2    -1     0     0   501     0  0.000000000E+00  0.000000000E+00  3.058840045E+00  3.058840045E+00  0.000000000E+00  0.00000E+00  9.000E+00
      -2    -1     0     0     0   511  0.000000000E+00  0.000000000E+00 -9.396456795E+01  9.396456795E+01  0.000000000E+00  0.00000E+00  9.000E+00
      23     2     1     2     0     0  2.819540929E+00 -2.805639983E+00 -7.255939552E+01  7.825083921E+01  2.902596307E+01  0.00000E+00  9.000E+00
      11     1     3     3     0     0  1.003950110E+01 -4.362660260E+00 -8.745681812E+00  1.401111478E+01  5.109988831E-04  0.00000E+00  9.000E+00
     -11     1     3     3     0     0 -7.219960171E+00  1.557020276E+00 -6.381371371E+01  6.423972443E+01  5.109994568E-04  0.00000E+00  9.000E+00
      21     1     1     2   501   511 -2.819540929E+00  2.805639983E+00 -1.834633239E+01  1.877256878E+01  2.588473673E-07  0.00000E+00  9.000E+00
</event>
<event>
      6  10011  1.00000E+00  7.37866E+00 -1.00000E+00  2.12301E-01
       2    -1     0     0   501     0  0.000000000E+00  0.000000000E+00  4.505175852E+02  4.505175852E+02  0.000000000E+00  0.00000E+00  9.000E+00
      21    -1     0     0   511   501  0.000000000E+00  0.000000000E+00 -3.730576216E+01  3.730576216E+01  0.000000000E+00  0.00000E+00  9.000E+00
      23     2     1     2     0     0 -4.492947970E+00 -5.853041397E+00  4.451968339E+02  4.549982718E+02  9.364166666E+01  0.00000E+00  9.000E+00
      11     1     3     3     0     0  1.470423924E+01 -2.640216272E+01  4.039410311E+02  4.050699267E+02  5.110156866E-04  0.00000E+00  9.000E+00
     -11     1     3     3     0     0 -1.919718721E+01  2.054912133E+01  4.125580273E+01  4.992834509E+01  5.109914026E-04  0.00000E+00  9.000E+00
       2     1     1     2   511     0  4.492947970E+00  5.853041397E+00 -3.198501080E+01  3.282507564E+01  1.056486023E-06  0.00000E+00  9.000E+00
</event>
<event>
      6  10011  1.00000E+00  5.84051E+00 -1.00000E+00  2.27225E-01
      -2    -1     0     0     0   501  0.000000000E+00  0.000000000E+00  4.608852730E+01  4.608852730E+01  0.000000000E+00  0.00000E+00  9.000E+00
      21    -1     0     0   501   511  0.000000000E+00  0.000000000E+00 -5.337195658E+02  5.337195658E+02  0.000000000E+00  0.00000E+00  9.000E+00
      23     2     1     2     0     0  5.160163724E+00  2.735731631E+00  5.145616086E+00  8.699682818E+01  8.664790379E+01  0.00000E+00  9.000E+00
      11     1     3     3     0     0  2.055017922E+01  3.002487608E+01  2.987936333E+01  4.708056290E+01  5.109986708E-04  0.00000E+00  9.000E+00
     -11     1     3     3     0     0 -1.539001549E+01 -2.728914445E+01 -2.473374724E+01  3.991626529E+01  5.109988033E-04  0.00000E+00  9.000E+00
      -2     1     1     2     0   511 -5.160163724E+00 -2.735731631E+00 -4.927766546E+02  4.928112649E+02  7.089696265E-06  0.00000E+00  9.000E+00
</event>
<event>
      6  10011  1.00000E+00  7.50616E+00 -1.00000E+00  2.11287E-01
      -5    -1     0     0     0   511  0.000000000E+00  0.000000000E+00  1.488397976E+02  1.488397976E+02  0.000000000E+00  0.00000E+00  9.000E+00
       5    -1     0     0   501     0  0.000000000E+00  0.000000000E+00 -1.657390464E+01  1.657390464E+01  0.000000000E+00  0.00000E+00  9.000E+00
      23     2     1     2     0     0 -2.062568603E+00  7.217222042E+00  1.171356786E+02  1.485238867E+02  9.100678671E+01  0.00000E+00  9.000E+00
      11     1     3     3     0     0  3.461477491E+01  3.139333227E+01  5.146398402E+01  6.951449924E+01  5.109986748E-04  0.00000E+00  9.000E+00
     -11     1     3     3     0     0 -3.667734352E+01 -2.417611022E+01  6.567169458E+01  7.900938743E+01  5.109988549E-04  0.00000E+00  9.000E+00
      21     1     1     2   501   511  2.062568603E+00 -7.217222042E+00  1.513021437E+01  1.688981558E+01  2.430020311E-07  0.00000E+00  9.000E+00
</event>
<event>
      6  10011  1.00000E+00  1.27286E+00 -1.00000E+00  5.08795E-01
      -1    -1     0     0     0   511  0.000000000E+00  0.000000000E+00  4.595005617E+00  4.595005617E+00  0.000000000E+00  0.00000E+00  9.000E+00
       1    -1     0     0   501     0  0.000000000E+00  0.000000000E+00 -3.566578078E+01  3.566578078E+01  0.000000000E+00  0.00000E+00  9.000E+00
      23     2     1     2     0     0 -9.326808873E-01  8.661884146E-01 -3.251607576E+01  3.833489184E+01  2.026446579E+01  0.00000E+00  9.000E+00
      11     1     3     3     0     0 -4.225170210E+00 -8.877822000E+00 -1.330245164E+01  1.654155394E+01  5.109987644E-04  0.00000E+00  9.000E+00
     -11     1     3     3     0     0  3.292489322E+00  9.744010415E+00 -1.921362412E+01  2.179333790E+01  5.109988222E-04  0.00000E+00  9.000E+00
      21     1     1     2   501   511  9.326808873E-01 -8.661884146E-01  1.445300600E+00  1.925894554E+00  3.975613069E-08  0.00000E+00  9.000E+00
</event>
<event>
      6  10011  1.00000E+00  3.24141E+00 -1.00000E+00  2.86898E-01
       2    -1     0     0   501     0  0.000000000E+00  0.000000000E+00  1.011100351E+02  1.011100351E+02  0.000000000E+00  0.00000E+00  9.000E+00
      21    -1     0     0   511   501  0.000000000E+00  0.000000000E+00 -1.262690656E+00  1.262690656E+00  0.000000000E+00  0.00000E+00  9.000E+00
      23     2     1     2     0     0 -1.896493611E+00  2.628692122E+00  9.508318828E+01  9.661044372E+01  1.680054857E+01  0.00000E+00  9.000E+00
      11     1     3     3     0     0  1.784494246E+00  2.277530272E+00  2.152501614E+00  3.606220641E+00  5.109989621E-04  0.00000E+00  9.000E+00
     -11     1     3     3     0     0 -3.680987857E+00  3.511618504E-01  9.293068667E+01  9.300422308E+01  5.110002837E-04  0.00000E+00  9.000E+00
       2     1     1     2   511     0  1.896493611E+00 -2.628692122E+00  4.764156164E+00  5.762282034E+00  1.578090309E-07  0.00000E+00  9.000E+00
</event>
<event>
      6  10011  1.00000E+00  5.14523E+01 -1.00000E+00  1.38341E-01
      -1    -1     0     0     0   501  0.000000000E+00  0.000000000E+00  9.220889687E+01  9.220889687E+01  0.000000000E+00  0.00000E+00  9.000E+00
       1    -1     0     0   511     0  0.000000000E+00  0.000000000E+00 -8.546205755E+01  8.546205755E+01  0.000000000E+00  0.00000E+00  9.000E+00
      23     2     1     2     0     0 -3.219500606E+01  4.013496891E+01  4.446553418E+01  1.138741356E+02  9.133893417E+01  0.00000E+00  9.000E+00
      11     1     3     3     0     0 -4.615298871E+01 -1.320404555E+01  1.057397037E+01  4.915540698E+01  5.109995926E-04  0.00000E+00  9.000E+00
     -11     1     3     3     0     0  1.395798265E+01  5.333901446E+01  3.389156381E+01  6.471872867E+01  5.109996883E-04  0.00000E+00  9.000E+00
      21     1     1     2   511   501  3.219500606E+01 -4.013496891E+01 -3.771869486E+01  6.379681878E+01  9.996002812E-08  0.00000E+00  9.000E+00
</event>
<event>
      6  10011  1.00000E+00  1.65550E+01 -1.00000E+00  1.73395E-01
      21    -1     0     0   511   501  0.000000000E+00  0.000000000E+00  3.920114873E+00  3.920114873E+00  0.000000000E+00  0.00000E+00  9.000E+00
       2    -1     0     0   501     0  0.000000000E+00  0.000000000E+00 -2.506946010E+02  2.506946010E+02  0.000000000E+00  0.00000E+00  9.000E+00
      23     2     1     2     0     0 -1.796154693E+00  1.645723413E+01 -2.239260732E+02  2.263991758E+02  2.897643579E+01  0.00000E+00  9.000E+00
      11     1     3     3     0     0  3.700523639E+00 -7.310011001E+00 -8.021447894E+01  8.063183471E+01  5.110005079E-04  0.00000E+00  9.000E+00
     -11     1     3     3     0     0 -5.496678332E+00  2.376724513E+01 -1.437115942E+02  1.457673411E+02  5.109989054E-04  0.00000E+00  9.000E+00
       2     1     1     2   511     0  1.796154693E+00 -1.645723413E+01 -2.284841297E+01  2.821554008E+01  2.383021353E-07  0.00000E+00  9.000E+00
</event>
<event>
      6  10011  1.00000E+00  6.89962E+00 -1.00000E+00  2.16372E-01
      -3    -1     0     0     0   511  0.000000000E+00  0.000000000E+00  8.009523521E+00  8.009523521E+00  0.000000000E+00  0.00000E+00  9.000E+00
       3    -1     0     0   501     0  0.000000000E+00  0.000000000E+00 -3.217488252E+02  3.217488252E+02  0.000000000E+00  0.00000E+00  9.000E+00
      23     2     1     2     0     0 -6.735959655E+00  1.493860340E+00 -3.065053114E+02  3.197615799E+02  9.085349364E+01  0.00000E+00  9.000E+00
      11     1     3     3     0     0 -1.526781440E+01 -3.976030401E+01 -2.128268795E+02  2.170466967E+02  5.110031411E-04  0.00000E+00  9.000E+00
     -11     1     3     3     0     0  8.531854742E+00  4.125416435E+01 -9.367843188E+01  1.027148832E+02  5.109948208E-04  0.00000E+00  9.000E+00
      21     1     1     2   501   511  6.735959655E+00 -1.493860340E+00 -7.233990307E+00  9.996768826E+00  8.539776047E-08  0.00000E+00  9.000E+00
</event>
<event>
      6  10011  1.00000E+00  1.62410E+01 -1.00000E+00  1.74146E-01
      21    -1     0     0   501   511  0.000000000E+00  0.000000000E+00  3.537869045E+01  3.537869045E+01  0.000000000E+00  0.00000E+00  9.000E+00
      -2    -1     0     0     0   501  0.000000000E+00  0.000000000E+00 -1.762608571E+01  1.762608571E+01  0.000000000E+00  0.00000E+00  9.000E+00
      23     2     1     2     0     0  7.866828516E+00  1.420855358E+01  1.514838961E+01  3.655631355E+01  2.903653503E+01  0.00000E+00  9.000E+00
      11     1     3     3     0     0 -4.418258776E+00  1.739609715E+01  1.570908419E+01  2.385205511E+01  5.109989758E-04  0.00000E+00  9.000E+00
     -11     1     3     3     0     0  1.228508729E+01 -3.187543565E+00 -5.606945782E-01  1.270425844E+01  5.109989418E-04  0.00000E+00  9.000E+00
      -2     1     1     2     0   511 -7.866828516E+00 -1.420855358E+01  2.604215127E+00  1.644846261E+01  1.271587886E-07  0.00000E+00  9.000E+00
</event>
<event>
      6  10011  1.00000E+00  3.64166E+00 -1.00000E+00  2.73342E-01
      -3    -1     0     0     0   511  0.000000000E+00  0.000000000E+00  4.009431182E+02  4.009431182E+02  0.000000000E+00  0.00000E+00  9.000E+00
       3    -1     0     0   501     0  0.000000000E+00  0.000000000E+00 -7.271086025E+00  7.271086025E+00  0.000000000E+00  0.00000E+00  9.000E+00
      23     2     1     2     0     0 -3.493759642E+00 -1.027305986E+00  2.844376721E+02  2.989191580E+02  9.184014362E+01  0.00000E+00  9.000E+00
      11     1     3     3     0     0  3.616765214E+01 -2.104071364E+01  8.691834725E+01  9.646558858E+01  5.109944718E-04  0.00000E+00  9.000E+00
     -11     1     3     3     0     0 -3.966141178E+01  2.001340765E+01  1.975193248E+02  2.024535694E+02  5.110011284E-04  0.00000E+00  9.000E+00
      21     1     1     2   501   511  3.493759642E+00  1.027305986E+00  1.092343601E+02  1.092950463E+02  1.892858089E-06  0.00000E+00  9.000E+00
</event>
<event>
      6  10011  1.00000E+00  6.98612E+00 -1.00000E+00  2.15604E-01
       2    -1     0     0   501     0  0.000000000E+00  0.000000000E+00  1.154384051E+03  1.154384051E+03  0.000000000E+00  0.00000E+00  9.000E+00
      21    -1     0     0   511   501  0.000000000E+00  0.000000000E+00 -2.386599506E-01  2.386599506E-01  0.000000000E+00  0.00000E+00  9.000E+00
      23     2     1     2     0     0  6.782424676E+00  1.674692685E+00  1.027532158E+03  1.027816888E+03  2.316061802E+01  0.00000E+00  9.000E+00
      11     1     3     3     0     0 -5.487230983E+00 -5.007069255E+00  1.601120982E+02  1.602843238E+02  5.110396245E-04  0.00000E+00  9.000E+00
     -11     1     3     3     0     0  1.226965566E+01  6.681761940E+00  8.674200597E+02  8.675325645E+02  5.109717882E-04  0.00000E+00  9.000E+00
       2     1     1     2   511     0 -6.782424676E+00 -1.674692685E+00  1.266132327E+02  1.268058223E+02  1.875889895E-06  0.00000E+00  9.000E+00
</event>
<event>
      6  10011  1.00000E+00  3.99971E+00 -1.00000E+00  2.63369E-01
       2    -1     0     0   501     0  0.000000000E+00  0.000000000E+00  5.666615985E+02  5.666615985E+02  0.000000000E+00  0.00000E+00  9.000E+00
      21    -1     0     0   511   501  0.000000000E+00  0.000000000E+00 -4.265011118E+00  4.265011118E+00  0.000000000E+00  0.00000E+00  9.000E+00
      23     2     1     2     0     0  1.237218380E+00 -3.803544990E+00  5.655656747E+02  5.658235930E+02  1.660747679E+01  0.00000E+00  9.000E+00
      11     1     3     3     0     0 -6.073190469E+00  1.251490383E+00  3.744737307E+02  3.745250657E+02  5.109761407E-04  0.00000E+00  9.000E+00
     -11     1     3     3     0     0  7.310408850E+00 -5.055035373E+00  1.910919440E+02  1.912985273E+02  5.109661355E-04  0.00000E+00  9.000E+00
       2     1     1     2   511     0 -1.237218380E+00  3.803544990E+00 -3.169087365E+00  5.103016612E+00  3.229541479E-07  0.00000E+00  9.000E+00
</event>
<event>
      6  10011  1.00000E+00  3.96219E+00 -1.00000E+00  2.64337E-01
       2    -1     0     0   511     0  0.000000000E+00  0.000000000E+00  1.149571184E+03  1.149571184E+03  0.000000000E+00  0.00000E+00  9.000E+00
      -2    -1     0     0     0   501  0.000000000E+00  0.000000000E+00 -1.713821716E-01  1.713821716E-01  0.000000000E+00  0.00000E+00  9.000E+00
      23     2     1     2     0     0  3.781101171E+00  1.184147555E+00  4.400264175E+02  4.403581166E+02  1.662299031E+01  0.00000E+00  9.000E+00
      11     1     3     3     0     0  1.920858270E+00 -7.658154575E+00  1.757135014E+02  1.758907945E+02  5.109945931E-04  0.00000E+00  9.000E+00
     -11     1     3     3     0     0  1.860242902E+00  8.842302130E+00  2.643129161E+02  2.644673221E+02  5.110343114E-04  0.00000E+00  9.000E+00
      21     1     1     2   511   501 -3.781101171E+00 -1.184147555E+00  7.093733845E+02  7.093844498E+02  1.205370394E-05  0.00000E+00  9.000E+00
</event>
<event>
      6  10011  1.00000E+00  1.29604E+00 -1.00000E+00  5.00740E-01
       1    -1     0     0   501     0  0.000000000E+00  0.000000000E+00  3.308083210E+01  3.308083210E+01  0.000000000E+00  0.00000E+00  9.000E+00
      -1    -1     0     0     0   511  0.000000000E+00  0.000000000E+00 -2.819081861E+00  2.819081861E+00  0.000000000E+00  0.00000E+00  9.000E+00
      23     2     1     2     0     0 -7.718287913E-01 -1.041152763E+00  2.913519931E+01  3.418269652E+01  1.783023229E+01  0.00000E+00  9.000E+00
      11     1     3     3     0     0  2.691542291E+00 -6.110707159E+00  2.679130182E+01  2.761084923E+01  5.109986190E-04  0.00000E+00  9.000E+00
     -11     1     3     3     0     0 -3.463371082E+00  5.069554396E+00  2.343897495E+00  6.571847286E+00  5.109988928E-04  0.00000E+00  9.000E+00
      21     1     1     2   501   511  7.718287913E-01  1.041152763E+00  1.126550925E+00  1.717217443E+00  2.604791200E-08  0.00000E+00  9.000E+00
</event>
<event>
      5  10011  1.00000E+00  8.94427E-01 -1.00000E+00  7.48705E-01
       2    -1     0     0   501     0  0.000000000E+00  0.000000000E+00  8.171309364E+01  8.171309364E+01  0.000000000E+00  0.00000E+00  9.000E+00
      -2    -1     0     0     0   501  0.000000000E+00  0.000000000E+00 -8.347347182E-01  8.347347182E-01  0.000000000E+00  0.00000E+00  9.000E+00
      23     2     1     2     0     0  0.000000000E+00  0.000000000E+00  8.087835892E+01  8.254782836E+01  1.651771851E+01  0.00000E+00  9.000E+00
      11     1     3     3     0     0  2.075095463E+00 -6.537398957E+00  6.343062424E+01  6.380037381E+01  5.109996488E-04  0.00000E+00  9.000E+00
     -11     1     3     3     0     0 -2.075095463E+00  6.537398957E+00  1.744773468E+01  1.874745455E+01  5.109987195E-04  0.00000E+00  9.000E+00
</event>
<event>
      6  10011  1.00000E+00  3.08472E+00 -1.00000E+00  2.93110E-01
      21    -1     0     0   511   501  0.000000000E+00  0.000000000E+00  8.293388999E+01  8.293388999E+01  0.000000000E+00  0.00000E+00  9.000E+00
       3    -1     0     0   501     0  0.000000000E+00  0.000000000E+00 -8.339555462E+00  8.339555462E+00  0.000000000E+00  0.00000E+00  9.000E+00
      23     2     1     2     0     0  1.004220862E+00 -2.916681350E+00  2.459685620E+01  4.118089781E+01  3.288381852E+01  0.00000E+00  9.000E+00
      11     1     3     3     0     0 -1.085009868E+01 -2.170507502E+00 -2.719106262E+00  1.139426537E+01  5.109989884E-04  0.00000E+00  9.000E+00
     -11     1     3     3     0     0  1.185431954E+01 -7.461738480E-01  2.731596246E+01  2.978663245E+01  5.109988199E-04  0.00000E+00  9.000E+00
       3     1     1     2   511     0 -1.004220862E+00  2.916681350E+00  4.999747833E+01  5.009254764E+01  3.908537939E-07  0.00000E+00  9.000E+00
</event>
<event>
      6  10011  1.00000E+00  5.81531E+00 -1.00000E+00  2.27521E-01
      21    -1     0     0   501   511  0.000000000E+00  0.000000000E+00  1.640013499E+01  1.640013499E+01  0.000000000E+00  0.00000E+00  9.000E+00
      -1    -1     0     0     0   501  0.000000000E+00  0.000000000E+00 -1.657125952E+02  1.657125952E+02  0.000000000E+00  0.00000E+00  9.000E+00
      23     2     1     2     0     0  8.602977704E-01  5.751323417E+00 -1.510811313E+02  1.760344055E+02  9.015977959E+01  0.00000E+00  9.000E+00
      11     1     3     3     0     0 -1.699209277E+01  2.411164246E+01 -7.839313006E+00  3.052142440E+01  5.109990869E-04  0.00000E+00  9.000E+00
     -11     1     3     3     0     0  1.785239054E+01 -1.836031904E+01 -1.432418183E+02  1.455129811E+02  5.110085883E-04  0.00000E+00  9.000E+00
      -1     1     1     2     0   511 -8.602977704E-01 -5.751323417E+00  1.768671103E+00  6.078324668E+00  4.864544852E-08  0.00000E+00  9.000E+00
</event>
<event>
      6  10011  1.00000E+00  1.22880E+01 -1.00000E+00  1.85899E-01
      -1    -1     0     0     0   501  0.000000000E+00  0.000000000E+00  1.837989472E+01  1.837989472E+01  0.000000000E+00  0.00000E+00  9.000E+00
       1    -1     0     0   511     0  0.000000000E+00  0.000000000E+00 -1.533658332E+02  1.533658332E+02  0.000000000E+00  0.00000E+00  9.000E+00
      23     2     1     2     0     0  1.078576460E+01  5.887401331E+00 -1.126709029E+02  1.462711322E+02  9.246360122E+01  0.00000E+00  9.000E+00
      11     1     3     3     0     0 -6.043498499E+00  1.757171227E+01 -1.222503300E+02  1.236544869E+02  5.109949033E-04  0.00000E+00  9.000E+00
     -11     1     3     3     0     0  1.682926309E+01 -1.168431094E+01  9.579427162E+00  2.261664527E+01  5.109990205E-04  0.00000E+00  9.000E+00
      21     1     1     2   511   501 -1.078576460E+01 -5.887401331E+00 -2.231503567E+01  2.547459576E+01  3.137658788E-07  0.00000E+00  9.000E+00
</event>
<event>
      6  10011  1.00000E+00  1.04337E+01 -1.00000E+00  1.93593E-01
       1    -1     0     0   501     0  0.000000000E+00  0.000000000E+00  2.027434134E+02  2.027434134E+02  0.000000000E+00  0.00000E+00  9.000E+00
      21    -1     0     0   511   501  0.000000000E+00  0.000000000E+00 -1.837366832E+01  1.837366832E+01  0.000000000E+00  0.00000E+00  9.000E+00
      23     2     1     2     0     0  1.489941541E+00 -1.032672901E+01  1.902507307E+02  2.091401351E+02  8.622873262E+01  0.00000E+00  9.000E+00
      11     1     3     3     0     0 -5.763294574E+00  1.769066462E+01  2.040003878E+00  1.871728599E+01  5.109997555E-04  0.00000E+00  9.000E+00
     -11     1     3     3     0     0  7.253236116E+00 -2.801739362E+01  1.882107268E+02  1.904228491E+02  5.110007008E-04  0.00000E+00  9.000E+00
       1     1     1     2   511     0 -1.489941541E+00  1.032672901E+01 -5.880985628E+00  1.197694659E+01  2.214590303E-07  0.00000E+00  9.000E+00
</event>
<event>
      6  10011  1.00000E+00  4.00104E+00 -1.00000E+00  2.63335E-01
      -2    -1     0     0     0   501  0.000000000E+00  0.000000000E+00  8.078906705E+01  8.078906705E+01  0.000000000E+00  0.00000E+00  9.000E+00
       2    -1     0     0   511     0  0.000000000E+00  0.000000000E+00 -3.051307805E+01  3.051307805E+01  0.000000000E+00  0.00000E+00  9.000E+00
      23     2     1     2     0     0 -2.956469376E+00  2.695843844E+00  5.288917323E+01  1.065233359E+02  9.237937092E+01  0.00000E+00  9.000E+00
      11     1     3     3     0     0  3.328747286E+01  2.284172609E+01  5.095813935E+01  6.501178559E+01  5.109994164E-04  0.00000E+00  9.000E+00
     -11     1     3     3     0     0 -3.624394224E+01 -2.014588224E+01  1.931033879E+00  4.151155035E+01  5.109986264E-04  0.00000E+00  9.000E+00
      21     1     1     2   511   501  2.956469376E+00 -2.695843844E+00 -2.613184223E+00  4.778809160E+00  2.231290294E-08  0.00000E+00  9.000E+00
</event>
<event>
      6  10011  1.00000E+00  5.57900E+00 -1.00000E+00  2.30411E-01
       4    -1     0     0   501     0  0.000000000E+00  0.000000000E+00  1.767919911E+00  1.767919911E+00  0.000000000E+00  0.00000E+00  9.000E+00
      21    -1     0     0   511   501  0.000000000E+00  0.000000000E+00 -7.512188176E+02  7.512188176E+02  0.000000000E+00  0.00000E+00  9.000E+00
      23     2     1     2     0     0  5.552847204E+00  5.396044634E-01 -1.449245447E+02  1.484346416E+02  3.160053588E+01  0.00000E+00  9.000E+00
      11     1     3     3     0     0 -3.636386338E+00 -7.687035429E+00 -1.228837685E+02  1.231776538E+02  5.109980658E-04  0.00000E+00  9.000E+00
     -11     1     3     3     0     0  9.189233542E+00  8.226639893E+00 -2.204077619E+01  2.525698779E+01  5.109983904E-04  0.00000E+00  9.000E+00
       4     1     1     2   511     0 -5.552847204E+00 -5.396044634E-01 -6.045263530E+02  6.045520960E+02  3.203160487E-06  0.00000E+00  9.000E+00
</event>
<event>
      6  10011  1.00000E+00  9.86153E+00 -1.00000E+00  1.96401E-01
       2    -1     0     0   501     0  0.000000000E+00  0.000000000E+00  1.651698200E+01  1.651698200E+01  0.000000000E+00  0.00000E+00  9.000E+00
      -2    -1     0     0     0   511  0.000000000E+00  0.000000000E+00 -1.681920867E+01  1.681920867E+01  0.000000000E+00  0.00000E+00  9.000E+00
      23     2     1     2     0     0 -2.335314047E+00 -9.581030628E+00  5.328319631E+00  2.198044802E+01  1.890765098E+01  0.00000E+00  9.000E+00
      11     1     3     3     0     0 -1.092772480E+00 -5.507568350E+00  1.246408887E+01  1.367044156E+01  5.109988265E-04  0.00000E+00  9.000E+00
     -11     1     3     3     0     0 -1.242541567E+00 -4.073462278E+00 -7.135769238E+00  8.310006459E+00  5.109989238E-04  0.00000E+00  9.000E+00
      21     1     1     2   501   511  2.335314047E+00  9.581030628E+00 -5.630546305E+00  1.135574266E+01  2.619947962E-07  0.00000E+00  9.000E+00
</event>
<event>
      6  10011  1.00000E+00  1.85905E+00 -1.00000E+00  3.78326E-01
       2    -1     0     0   501     0  0.000000000E+00  0.000000000E+00  7.447789253E+02  7.447789253E+02  0.000000000E+00  0.00000E+00  9.000E+00
      -2    -1     0     0     0   511  0.000000000E+00  0.000000000E+00 -2.069225096E-01  2.069225096E-01  0.000000000E+00  0.00000E+00  9.000E+00
      23     2     1     2     0     0 -7.350292299E-01  1.707571376E+00  7.295963570E+02  7.298952535E+02  2.080338803E+01  0.00000E+00  9.000E+00
      11     1     3     3     0     0  2.574567923E+00 -8.987106211E+00  3.986498165E+02  3.987594170E+02  5.110278112E-04  0.00000E+00  9.000E+00
     -11     1     3     3     0     0 -3.309597153E+00  1.069467759E+01  3.309465405E+02  3.311358365E+02  5.110644822E-04  0.00000E+00  9.000E+00
      21     1     1     2   501   511  7.350292299E-01 -1.707571376E+00  1.497564577E+01  1.509059423E+01  4.396316081E-07  0.00000E+00  9.000E+00
</event>
<event>
      6  10011  1.00000E+00  3.17805E+01 -1.00000E+00  1.51287E-01
      21    -1     0     0   511   501  0.000000000E+00  0.000000000E+00  5.425371120E+01  5.425371120E+01  0.000000000E+00  0.00000E+00  9.000E+00
       1    -1     0     0   501     0  0.000000000E+00  0.000000000E+00 -8.940056864E+01  8.940056864E+01  0.000000000E+00  0.00000E+00  9.000E+00
      23     2     1     2     0     0  1.442475799E+01 -2.831826742E+01 -4.798247469E+01  1.093796393E+02  9.301392211E+01  0.00000E+00  9.000E+00
      11     1     3     3     0     0  2.408020713E+01 -5.722211409E+01 -1.382301199E+01  6.360269159E+01  5.109991695E-04  0.00000E+00  9.000E+00
     -11     1     3     3     0     0 -9.655449142E+00  2.890384667E+01 -3.415946271E+01  4.577694772E+01  5.109991483E-04  0.00000E+00  9.000E+00
       1     1     1     2   511     0 -1.442475799E+01  2.831826742E+01  1.283561725E+01  3.427464052E+01  4.894895367E-07  0.00000E+00  9.000E+00
</event>
<event>
      6  10011  1.00000E+00  6.29763E+00 -1.00000E+00  2.22179E-01
      21    -1     0     0   511   501  0.000000000E+00  0.000000000E+00  1.405118308E+02  1.405118308E+02  0.000000000E+00  0.00000E+00  9.000E+00
       4    -1     0     0   501     0  0.000000000E+00  0.000000000E+00 -1.613169520E+00  1.613169520E+00  0.000000000E+00  0.00000E+00  9.000E+00
      23     2     1     2     0     0  3.735381075E+00  5.070218598E+00  1.011250506E+02  1.038300156E+02  2.268779625E+01  0.00000E+00  9.000E+00
      11     1     3     3     0     0  6.008908414E+00  3.325881061E+00  7.532013232E+00  1.019311968E+01  5.109989470E-04  0.00000E+00  9.000E+00
     -11     1     3     3     0     0 -2.273527339E+00  1.744337537E+00  9.359303732E+01  9.363689591E+01  5.110004975E-04  0.00000E+00  9.000E+00
       4     1     1     2   511     0 -3.735381075E+00 -5.070218598E+00  3.777361069E+01  3.829498470E+01  3.530977848E-07  0.00000E+00  9.000E+00
</event>
<event>
      6  10011  1.00000E+00  5.53263E+00 -1.00000E+00  2.31002E-01
      -2    -1     0     0     0   501  0.000000000E+00  0.000000000E+00  5.977474031E-01  5.977474031E-01  0.000000000E+00  0.00000E+00  9.000E+00
       2    -1     0     0   511     0  0.000000000E+00  0.000000000E+00 -4.048486328E+02  4.048486328E+02  0.000000000E+00  0.00000E+00  9.000E+00
      23     2     1     2     0     0 -2.591834533E+00 -4.887979179E+00 -1.537275635E+02  1.548619738E+02  1.787336525E+01  0.00000E+00  9.000E+00
      11     1     3     3     0     0  6.919701632E-01  3.916445236E+00 -9.120518844E+00  9.949936193E+00  5.109985167E-04  0.00000E+00  9.000E+00
     -11     1     3     3     0     0 -3.283804696E+00 -8.804424416E+00 -1.446070447E+02  1.449120376E+02  5.109915843E-04  0.00000E+00  9.000E+00
      21     1     1     2   511   501  2.591834533E+00  4.887979179E+00 -2.505233219E+02  2.505844064E+02  7.102713160E-07  0.00000E+00  9.000E+00
</event>
<event>
      6  10011  1.00000E+00  4.85056E+01 -1.00000E+00  1.39802E-01
      21    -1     0     0   511   501  0.000000000E+00  0.000000000E+00  6.540454268E+02  6.540454268E+02  0.000000000E+00  0.00000E+00  9.000E+00
       2    -1     0     0   501     0  0.000000000E+00  0.000000000E+00 -7.164169223E+00  7.164169223E+00  0.000000000E+00  0.00000E+00  9.000E+00
      23     2     1     2     0     0 -4.636242569E+01 -1.425911740E+01  5.535039994E+02  5.559855052E+02  2.001018984E+01  0.00000E+00  9.000E+00
      11     1     3     3     0     0 -3.086208096E+01 -1.588637194E+01  2.996934196E+02  3.016968521E+02  5.109932025E-04  0.00000E+00  9.000E+00
     -11     1     3     3     0     0 -1.550034473E+01  1.627254545E+00  2.538105798E+02  2.542886531E+02  5.109810250E-04  0.00000E+00  9.000E+00
       2     1     1     2   511     0  4.636242569E+01  1.425911740E+01  9.337725820E+01  1.052240908E+02  2.090840544E-06  0.00000E+00  9.000E+00
</event>
<event>
      6  10011  1.00000E+00  3.41412E+00 -1.00000E+00  2.80682E-01
      21    -1     0     0   501   511  0.000000000E+00  0.000000000E+00  2.549831556E+02  2.549831556E+02  0.000000000E+00  0.00000E+00  9.000E+00
      -3    -1     0     0     0   501  0.000000000E+00  0.000000000E+00 -1.043688566E+01  1.043688566E+01  0.000000000E+00  0.00000E+00  9.000E+00
      23     2     1     2     0     0 -3.387947382E+00  4.219347594E-01  1.886609634E+02  2.094305449E+02  9.086549293E+01  0.00000E+00  9.000E+00
      11     1     3     3     0     0  2.334982294E+01  2.685065186E+01  3.050996876E+01  4.687248586E+01  5.109987408E-04  0.00000E+00  9.000E+00
     -11     1     3     3     0     0 -2.673777032E+01 -2.642871710E+01  1.581509946E+02  1.625580590E+02  5.110047802E-04  0.00000E+00  9.000E+00
      -3     1     1     2     0   511  3.387947382E+00 -4.219347594E-01  5.588530663E+01  5.598949645E+01  3.653064570E-07  0.00000E+00  9.000E+00
</event>
<event>
      6  10011  1.00000E+00  2.27355E+00 -1.00000E+00  3.38757E-01
       2    -1     0     0   501     0  0.000000000E+00  0.000000000E+00  1.153887695E+03  1.153887695E+03  0.000000000E+00  0.00000E+00  9.000E+00
      -2    -1     0     0     0   511  0.000000000E+00  0.000000000E+00 -1.498198884E-01  1.498198884E-01  0.000000000E+00  0.00000E+00  9.000E+00
      23     2     1     2     0     0 -1.938836425E+00  1.187415107E+00  1.139220009E+03  1.139342703E+03  1.656497502E+01  0.00000E+00  9.000E+00
      11     1     3     3     0     0 -1.494557305E+00 -7.687086532E+00  5.218503196E+02  5.219090735E+02  5.107882276E-04  0.00000E+00  9.000E+00
     -11     1     3     3     0     0 -4.442791206E-01  8.874501639E+00  6.173696890E+02  6.174336296E+02  5.109219477E-04  0.00000E+00  9.000E+00
      21     1     1     2   501   511  1.938836425E+00 -1.187415107E+00  1.451786674E+01  1.469481187E+01  9.167620779E-07  0.00000E+00  9.000E+00
</event>
<event>
      6  10011  1.00000E+00  9.57174E+00 -1.00000E+00  1.97921E-01
      21    -1     0     0   511   501  0.000000000E+00  0.000000000E+00  2.383290319E+01  2.383290319E+01  0.000000000E+00  0.00000E+00  9.000E+00
       1    -1     0     0   501     0  0.000000000E+00  0.000000000E+00 -1.663724339E+02  1.663724339E+02  0.000000000E+00  0.00000E+00  9.000E+00
      23     2     1     2     0     0  3.601699085E+00 -8.868261632E+00 -1.523920342E+02  1.764688847E+02  8.846647314E+01  0.00000E+00  9.000E+00
      11     1     3     3     0     0  2.805363731E+01  2.078709389E+01 -2.380082720E+01  4.225623284E+01  5.109992751E-04  0.00000E+00  9.000E+00
     -11     1     3     3     0     0 -2.445193822E+01 -2.965535552E+01 -1.285912070E+02  1.342126518E+02  5.109988028E-04  0.00000E+00  9.000E+00
       1     1     1     2   511     0 -3.601699085E+00  8.868261632E+00  9.852503473E+00  1.373645243E+01  1.040083439E-07  0.00000E+00  9.000E+00
</event>
<event>
      6  10011  1.00000E+00  2.63567E+00 -1.00000E+00  3.14886E-01
       2    -1     0     0   511     0  0.000000000E+00  0.000000000E+00  2.550355530E+02  2.550355530E+02  0.000000000E+00  0.00000E+00  9.000E+00
      -2    -1     0     0     0   501  0.000000000E+00  0.000000000E+00 -3.719738301E+01  3.719738301E+01  0.000000000E+00  0.00000E+00  9.000E+00
      23     2     1     2     0     0 -2.329612181E+00 -1.232739796E+00  1.780581199E+01  9.218321472E+01  9.040880154E+01  0.00000E+00  9.000E+00
      11     1     3     3     0     0  2.745559306E+01  1.914864049E+01  3.814988931E+01  5.075326667E+01  5.109989840E-04  0.00000E+00  9.000E+00
     -11     1     3     3     0     0 -2.978520524E+01 -2.038138028E+01 -2.034407732E+01  4.142994805E+01  5.109987753E-04  0.00000E+00  9.000E+00
      21     1     1     2   511   501  2.329612181E+00  1.232739796E+00  2.000323580E+02  2.000497212E+02  1.576990671E-07  0.00000E+00  9.000E+00
</event>
<event>
      6  10011  1.00000E+00  7.76154E+00 -1.00000E+00  2.09337E-01
       2    -1     0     0   501     0  0.000000000E+00  0.000000000E+00  6.510647981E+00  6.510647981E+00  0.000000000E+00  0.00000E+00  9.000E+00
      21    -1     0     0   511   501  0.000000000E+00  0.000000000E+00 -1.685374594E+02  1.685374594E+02  0.000000000E+00  0.00000E+00  9.000E+00
      23     2     1     2     0     0  2.246836202E+00  7.429210737E+00 -1.276242495E+01  2.558206270E+01  2.076826897E+01  0.00000E+00  9.000E+00
      11     1     3     3     0     0  3.304614107E+00  5.049348489E+00 -1.840413962E+01  1.936824076E+01  5.109989588E-04  0.00000E+00  9.000E+00
     -11     1     3     3     0     0 -1.057777905E+00  2.379862248E+00  5.641714671E+00  6.213821941E+00  5.109989049E-04  0.00000E+00  9.000E+00
       2     1     1     2   511     0 -2.246836202E+00 -7.429210737E+00 -1.492643865E+02  1.494660447E+02  6.063875541E-07  0.00000E+00  9.000E+00
</event>
<event>
      6  10011  1.00000E+00  2.26856E+01 -1.00000E+00  1.61938E-01
      -1    -1     0     0     0   501  0.000000000E+00  0.000000000E+00  4.552339864E+01  4.552339864E+01  0.000000000E+00  0.00000E+00  9.000E+00
       1    -1     0     0   511     0  0.000000000E+00  0.000000000E+00 -7.859748451E+01  7.859748451E+01  0.000000000E+00  0.00000E+00  9.000E+00
      23     2     1     2     0     0  1.836175521E+01 -1.332222047E+01 -2.377925421E+01  9.960497998E+01  9.402692962E+01  0.00000E+00  9.000E+00
      11     1     3     3     0     0  9.761552288E+00  2.665328462E+01 -4.525365241E+01  5.341889685E+01  5.109988309E-04  0.00000E+00  9.000E+00
     -11     1     3     3     0     0  8.600202922E+00 -3.997550508E+01  2.147439820E+01  4.618608313E+01  5.109984890E-04  0.00000E+00  9.000E+00
      21     1     1     2   511   501 -1.836175521E+01  1.332222047E+01 -9.294831660E+00  2.451590317E+01  1.819299973E-07  0.00000E+00  9.000E+00
</event>
<event>
      6  10011  1.00000E+00  5.93004E+00 -1.00000E+00  2.26187E-01
      -2    -1     0     0     0   511  0.000000000E+00  0.000000000E+00  2.380049344E-01  2.380049344E-01  0.000000000E+00  0.00000E+00  9.000E+00
       2    -1     0     0   501     0  0.000000000E+00  0.000000000E+00 -9.731576193E+02  9.731576193E+02  0.000000000E+00  0.00000E+00  9.000E+00
      23     2     1     2     0     0 -2.238100805E-01 -5.925812128E+00 -9.074255851E+02  9.076336808E+02  1.850785271E+01  0.00000E+00  9.000E+00
      11     1     3     3     0     0  5.850168083E+00 -2.131473579E+00 -1.100894464E+02  1.102653792E+02  5.109644086E-04  0.00000E+00  9.000E+00
     -11     1     3     3     0     0 -6.073978164E+00 -3.794338549E+00 -7.973361387E+02  7.973683016E+02  5.113956254E-04  0.00000E+00  9.000E+00
      21     1     1     2   501   511  2.238100805E-01  5.925812128E+00 -6.549402925E+01  6.576194346E+01  1.839433524E-06  0.00000E+00  9.000E+00
</event>
<event>
      6  10011  1.00000E+00  5.04773E+00 -1.00000E+00  2.37710E-01
       3    -1     0     0   511     0  0.000000000E+00  0.000000000E+00  8.975021620E+01  8.975021620E+01  0.000000000E+00  0.00000E+00  9.000E+00
      -3    -1     0     0     0   501  0.000000000E+00  0.000000000E+00 -2.479156693E+01  2.479156693E+01  0.000000000E+00  0.00000E+00  9.000E+00
      23     2     1     2     0     0 -3.554111578E+00 -3.584390134E+00  6.100182926E+01  1.081280489E+02  8.913457371E+01  0.00000E+00  9.000E+00
      11     1     3     3     0     0 -3.772045673E+00  3.045653165E+01  6.687775182E+01  7.358303023E+01  5.109974227E-04  0.00000E+00  9.000E+00
     -11     1     3     3     0     0  2.179340955E-01 -3.404092178E+01 -5.875922561E+00  3.454501871E+01  5.109981659E-04  0.00000E+00  9.000E+00
      21     1     1     2   511   501  3.554111578E+00  3.584390134E+00  3.956820014E+00  6.413734198E+00  6.420724523E-08  0.00000E+00  9.000E+00
</event>
<event>
      6  10011  1.00000E+00  7.29403E+00 -1.00000E+00  2.12989E-01
      21    -1     0     0   511   501  0.000000000E+00  0.000000000E+00  1.736051165E+00  1.736051165E+00  0.000000000E+00  0.00000E+00  9.000E+00
       1    -1     0     0   501     0  0.000000000E+00  0.000000000E+00 -1.527720437E+03  1.527720437E+03  0.000000000E+00  0.00000E+00  9.000E+00
      23     2     1     2     0     0 -7.086023189E+00  1.729488785E+00 -1.451049916E+03  1.454167859E+03  9.489521409E+01  0.00000E+00  9.000E+00
      11     1     3     3     0     0  1.666309369E+01 -2.367318321E+01 -1.234829871E+03  1.235169174E+03  5.104385317E-04  0.00000E+00  9.000E+00
     -11     1     3     3     0     0 -2.374911688E+01  2.540267199E+01 -2.162200447E+02  2.189986850E+02  5.110673393E-04  0.00000E+00  9.000E+00
       1     1     1     2   511     0  7.086023189E+00 -1.729488785E+00 -7.493447029E+01  7.528862925E+01  8.145362359E-07  0.00000E+00  9.000E+00
</event>
<event>
      6  10011  1.00000E+00  9.64277E+00 -1.00000E+00  1.97542E-01
       2    -1     0     0   501     0  0.000000000E+00  0.000000000E+00  4.735397468E+02  4.735397468E+02  0.000000000E+00  0.00000E+00  9.000E+00
      21    -1     0     0   511   501  0.000000000E+00  0.000000000E+00 -8.247815020E-01  8.247815020E-01  0.000000000E+00  0.00000E+00  9.000E+00
      23     2     1     2     0     0  9.092754437E+00  3.210114646E+00  3.925654636E+02  3.936370507E+02  2.737702402E+01  0.00000E+00  9.000E+00
      11     1     3     3     0     0  1.812124651E+01  5.170931158E+00  2.121978363E+02  2.130329548E+02  5.109936545E-04  0.00000E+00  9.000E+00
     -11     1     3     3     0     0 -9.028492072E+00 -1.960816512E+00  1.803676273E+02  1.806040959E+02  5.109883079E-04  0.00000E+00  9.000E+00
       2     1     1     2   511     0 -9.092754437E+00 -3.210114646E+00  8.014950169E+01  8.072747761E+01  1.026342831E-06  0.00000E+00  9.000E+00
</event>
<event>
      6  10011  1.00000E+00  1.82317E+01 -1.00000E+00  1.69713E-01
      21    -1     0     0   501   511  0.000000000E+00  0.000000000E+00  1.443370604E+00  1.443370604E+00  0.000000000E+00  0.00000E+00  9.000E+00
      -2    -1     0     0     0   501  0.000000000E+00  0.000000000E+00 -4.184402942E+02  4.184402942E+02  0.000000000E+00  0.00000E+00  9.000E+00
      23     2     1     2     0     0  1.533398659E+01  9.862229083E+00 -1.776366060E+02  1.798300117E+02  2.125263810E+01  0.00000E+00  9.000E+00
      11     1     3     3     0     0  1.765772042E+01 -1.708074393E-01 -1.072613552E+02  1.087052096E+02  5.109979216E-04  0.00000E+00  9.000E+00
     -11     1     3     3     0     0 -2.323733832E+00  1.003303652E+01 -7.037525077E+01  7.112480215E+01  5.109997957E-04  0.00000E+00  9.000E+00
      -2     1     1     2     0   511 -1.533398659E+01 -9.862229083E+00 -2.393603176E+02  2.400536531E+02  1.673182112E-06  0.00000E+00  9.000E+00
</event>
<event>
      6  10011  1.00000E+00  7.33564E+00 -1.00000E+00  2.12649E-01
      -2    -1     0     0     0   511  0.000000000E+00  0.000000000E+00  2.539499089E+00  2.539499089E+00  0.000000000E+00  0.00000E+00  9.000E+00
       2    -1     0     0   501     0  0.000000000E+00  0.000000000E+00 -1.106760727E+03  1.106760727E+03  0.000000000E+00  0.00000E+00  9.000E+00
      23     2     1     2     0     0 -5.890353939E+00  4.372103667E+00 -1.070711487E+03  1.074996957E+03  9.561148882E+01  0.00000E+00  9.000E+00
      11     1     3     3     0     0 -2.519499893E+01 -2.683649422E+01 -8.810114967E+02  8.817801555E+02  5.112397645E-04  0.00000E+00  9.000E+00
     -11     1     3     3     0     0  1.930464499E+01  3.120859789E+01 -1.896999905E+02  1.932168012E+02  5.109945618E-04  0.00000E+00  9.000E+00
      21     1     1     2   501   511  5.890353939E+00 -4.372103667E+00 -3.350974080E+01  3.430326936E+01  3.835421108E-07  0.00000E+00  9.000E+00
</event>
<event>
      6  10011  1.00000E+00  4.05971E+00 -1.00000E+00  2.61856E-01
       1    -1     0     0   501     0  0.000000000E+00  0.000000000E+00  4.216954865E+02  4.216954865E+02  0.000000000E+00  0.00000E+00  9.000E+00
      -1    -1     0     0     0   511  0.000000000E+00  0.000000000E+00 -9.298786161E-01  9.298786161E-01  0.000000000E+00  0.00000E+00  9.000E+00
      23     2     1     2     0     0 -3.868432412E+00  1.231459862E+00  4.104989307E+02  4.115851694E+02  2.960571297E+01  0.00000E+00  9.000E+00
      11     1     3     3     0     0 -1.146788462E+01  4.207087602E+00  7.509821006E+01  7.608517016E+01  5.110016255E-04  0.00000E+00  9.000E+00
     -11     1     3     3     0     0  7.599452207E+00 -2.975627740E+00  3.354007207E+02  3.354999992E+02  5.110096103E-04  0.00000E+00  9.000E+00
      21     1     1     2   501   511  3.868432412E+00 -1.231459862E+00  1.026667720E+01  1.104019581E+01  3.514431839E-08  0.00000E+00  9.000E+00
</event>
<event>
      6  10011  1.00000E+00  2.16347E+00 -1.00000E+00  3.47669E-01
       1    -1     0     0   511     0  0.000000000E+00  0.000000000E+00  4.433053323E+01  4.433053323E+01  0.000000000E+00  0.00000E+00  9.000E+00
      -1    -1     0     0     0   501  0.000000000E+00  0.000000000E+00 -6.642705267E+01  6.642705267E+01  0.000000000E+00  0.00000E+00  9.000E+00
      23     2     1     2     0     0  1.762278264E+00  1.254989036E+00 -3.467249320E+01  9.799687517E+01  9.163255501E+01  0.00000E+00  9.000E+00
      11     1     3     3     0     0 -3.369595461E+01 -4.400709901E+00  1.463616680E+01  3.700001329E+01  5.109985259E-04  0.00000E+00  9.000E+00
     -11     1     3     3     0     0  3.545823287E+01  5.655698937E+00 -4.930865999E+01  6.099686188E+01  5.109984174E-04  0.00000E+00  9.000E+00
      21     1     1     2   511   501 -1.762278264E+00 -1.254989036E+00  1.257597376E+01  1.276071072E+01  1.700626643E-07  0.00000E+00  9.000E+00
</event>
<event>
      6  10011  1.00000E+00  3.13894E+00 -1.00000E+00  2.90893E-01
       2    -1     0     0   511     0  0.000000000E+00  0.000000000E+00  1.713889273E+02  1.713889273E+02  0.000000000E+00  0.00000E+00  9.000E+00
      -2    -1     0     0     0   501  0.000000000E+00  0.000000000E+00 -1.388005936E+01  1.388005936E+01  0.000000000E+00  0.00000E+00  9.000E+00
      23     2     1     2     0     0  3.847896113E-01  3.115269456E+00  1.413177522E+02  1.687764066E+02  9.222209815E+01  0.00000E+00  9.000E+00
      11     1     3     3     0     0  3.911454841E+01 -1.156179417E+01  3.189520248E+01  5.177766819E+01  5.109999421E-04  0.00000E+00  9.000E+00
     -11     1     3     3     0     0 -3.872975880E+01  1.467706362E+01  1.094225497E+02  1.169987385E+02  5.109981866E-04  0.00000E+00  9.000E+00
      21     1     1     2   511   501 -3.847896113E-01 -3.115269456E+00  1.619111570E+01  1.649257998E+01  2.603975254E-07  0.00000E+00  9.000E+00
</event>
<event>
      6  10011  1.00000E+00  2.20233E+01 -1.00000E+00  1.62948E-01
      -2    -1     0     0     0   501  0.000000000E+00  0.000000000E+00  3.840067753E+01  3.840067753E+01  0.000000000E+00  0.00000E+00  9.000E+00
      21    -1     0     0   501   511  0.000000000E+00  0.000000000E+00 -1.771508668E+01  1.771508668E+01  0.000000000E+00  0.00000E+00  9.000E+00
      23     2     1     2     0     0  1.447647201E+01 -1.659686267E+01  1.823493123E+01  3.395657142E+01  1.831698483E+01  0.00000E+00  9.000E+00
      11     1     3     3     0     0 -1.618115620E+00 -8.712874375E+00  7.098667029E-01  8.890241225E+00  5.109989408E-04  0.00000E+00  9.000E+00
     -11     1     3     3     0     0  1.609458763E+01 -7.883988293E+00  1.752506453E+01  2.506633019E+01  5.109989473E-04  0.00000E+00  9.000E+00
      -2     1     1     2     0   511 -1.447647201E+01  1.659686267E+01  2.450659625E+00  2.215919279E+01  3.149006696E-07  0.00000E+00  9.000E+00
</event>
<event>
      6  10011  1.00000E+00  2.31094E+00 -1.00000E+00  3.35933E-01
       1    -1     0     0   501     0  0.000000000E+00  0.000000000E+00  1.509290642E+00  1.509290642E+00  0.000000000E+00  0.00000E+00  9.000E+00
      -1    -1     0     0     0   511  0.000000000E+00  0.000000000E+00 -1.038217523E+03  1.038217523E+03  0.000000000E+00  0.00000E+00  9.000E+00
      23     2     1     2     0     0 -2.310094065E+00  6.267260678E-02 -6.299079247E+02  6.329199420E+02  6.163050368E+01  0.00000E+00  9.000E+00
      11     1     3     3     0     0  2.847303989E+01  2.711323003E+00 -3.868922807E+02  3.879480663E+02  5.110013648E-04  0.00000E+00  9.000E+00
     -11     1     3     3     0     0 -3.078313395E+01 -2.648650396E+00 -2.430156440E+02  2.449718758E+02  5.109549690E-04  0.00000E+00  9.000E+00
      21     1     1     2   501   511  2.310094065E+00 -6.267260678E-02 -4.068003074E+02  4.068068714E+02  3.872008745E-06  0.00000E+00  9.000E+00
</event>
<event>
      6  10011  1.00000E+00  4.76380E+00 -1.00000E+00  2.46687E-01
      21    -1     0     0   511   501  0.000000000E+00  0.000000000E+00  1.079001462E+01  1.079001462E+01  0.000000000E+00  0.00000E+00  9.000E+00
       2    -1     0     0   501     0  0.000000000E+00  0.000000000E+00 -2.614953880E+02  2.614953880E+02  0.000000000E+00  0.00000E+00  9.000E+00
      23     2     1     2     0     0 -4.494127797E+00 -1.580067207E+00 -2.497697086E+02  2.674305838E+02  9.545426142E+01  0.00000E+00  9.000E+00
      11     1     3     3     0     0 -2.419406807E+01  3.179798121E+00 -2.455115435E+02  2.467212638E+02  5.109943219E-04  0.00000E+00  9.000E+00
     -11     1     3     3     0     0  1.969994028E+01 -4.759865328E+00 -4.258165175E+00  2.070932002E+01  5.109992819E-04  0.00000E+00  9.000E+00
       2     1     1     2   511     0  4.494127797E+00  1.580067207E+00 -9.356647645E-01  4.854818800E+00  1.447141255E-07  0.00000E+00  9.000E+00
</event>
<event>
      6  10011  1.00000E+00  7.61869E+00 -1.00000E+00  2.10415E-01
      21    -1     0     0   501   511  0.000000000E+00  0.000000000E+00  2.753417126E+02  2.753417126E+02  0.000000000E+00  0.00000E+00  9.000E+00
      -4    -1     0     0     0   501  0.000000000E+00  0.000000000E+00 -1.052500761E+00  1.052500761E+00  0.000000000E+00  0.00000E+00  9.000E+00
      23     2     1     2     0     0  5.055513844E+00  5.699672931E+00  1.428943663E+02  1.447786751E+02  2.200046218E+01  0.00000E+00  9.000E+00
      11     1     3     3     0     0  2.499346006E+00  1.411935080E+01  8.052625286E+01  8.179291043E+01  5.109985343E-04  0.00000E+00  9.000E+00
     -11     1     3     3     0     0  2.556167838E+00 -8.419677866E+00  6.236811349E+01  6.298576466E+01  5.109986701E-04  0.00000E+00  9.000E+00
      -4     1     1     2     0   511 -5.055513844E+00 -5.699672931E+00  1.313948455E+02  1.316155383E+02  2.554669260E-06  0.00000E+00  9.000E+00
</event>
<event>
      6  10011  1.00000E+00  1.78800E+00 -1.00000E+00  3.87171E-01
      -2    -1     0     0     0   501  0.000000000E+00  0.000000000E+00  1.781002132E+00  1.781002132E+00  0.000000000E+00  0.00000E+00  9.000E+00
       2    -1     0     0   511     0  0.000000000E+00  0.000000000E+00 -5.343792735E+01  5.343792735E+01  0.000000000E+00  0.00000E+00  9.000E+00
      23     2     1     2     0     0  1.461332552E+00 -1.030259684E+00 -3.926034848E+01  4.269407249E+01  1.667968630E+01  0.00000E+00  9.000E+00
      11     1     3     3     0     0 -3.224273346E+00  2.611761552E+00 -1.411627248E+00  4.382913274E+00  5.109989192E-04  0.00000E+00  9.000E+00
     -11     1     3     3     0     0  4.685605898E+00 -3.642021236E+00 -3.784872123E+01  3.831115921E+01  5.109987147E-04  0.00000E+00  9.000E+00
      21     1     1     2   511   501 -1.461332552E+00  1.030259684E+00 -1.239657674E+01  1.252485700E+01  1.186257849E-07  0.00000E+00  9.000E+00
</event>
<event>
      6  10011  1.00000E+00  5.33057E+01 -1.00000E+00  1.37479E-01
      -1    -1     0     0     0   501  0.000000000E+00  0.000000000E+00  2.060438766E+02  2.060438766E+02  0.000000000E+00  0.00000E+00  9.000E+00
      21    -1     0     0   501   511  0.000000000E+00  0.000000000E+00 -9.319599135E+01  9.319599135E+01  0.000000000E+00  0.00000E+00  9.000E+00
      23     2     1     2     0     0 -6.841694107E+00 -5.286484479E+01  1.838868484E+02  2.104252584E+02  8.730931093E+01  0.00000E+00  9.000E+00
      11     1     3     3     0     0 -1.922319480E+01  1.071589055E+01  8.732901088E+00  2.367752289E+01  5.109987257E-04  0.00000E+00  9.000E+00
     -11     1     3     3     0     0  1.238150069E+01 -6.358073534E+01  1.751539473E+02  1.867477355E+02  5.109980415E-04  0.00000E+00  9.000E+00
      -1     1     1     2     0   511  6.841694107E+00  5.286484479E+01 -7.103896311E+01  8.881460957E+01  8.291261043E-07  0.00000E+00  9.000E+00
</event>
<event>
      6  10011  1.00000E+00  2.10014E+00 -1.00000E+00  3.53250E-01
       2    -1     0     0   501     0  0.000000000E+00  0.000000000E+00  1.188512694E+03  1.188512694E+03  0.000000000E+00  0.00000E+00  9.000E+00
      -2    -1     0     0     0   511  0.000000000E+00  0.000000000E+00 -1.928965535E-01  1.928965535E-01  0.000000000E+00  0.00000E+00  9.000E+00
      23     2     1     2     0     0  2.090879214E+00 -1.969762950E-01  1.134146442E+03  1.134491542E+03  2.790156497E+01  0.00000E+00  9.000E+00
      11     1     3     3     0     0 -8.969908628E-02 -3.955048307E-01  6.826856368E-02  4.112552189E-01  5.109991517E-04  0.00000E+00  9.000E+00
     -11     1     3     3     0     0  2.180578300E+00  1.985285357E-01  1.134078173E+03  1.134080287E+03  5.112358173E-04  0.00000E+00  9.000E+00
      21     1     1     2   501   511 -2.090879214E+00  1.969762950E-01  5.417335558E+01  5.421404827E+01  4.061762443E-07  0.00000E+00  9.000E+00
</event>
<event>
      6  10011  1.00000E+00  1.65981E+01 -1.00000E+00  1.73294E-01
      -3    -1     0     0     0   501  0.000000000E+00  0.000000000E+00  4.770446525E+01  4.770446525E+01  0.000000000E+00  0.00000E+00  9.000E+00
      21    -1     0     0   501   511  0.000000000E+00  0.000000000E+00 -5.785092997E+01  5.785092997E+01  0.000000000E+00  0.00000E+00  9.000E+00
      23     2     1     2     0     0 -1.611777108E+01 -3.964251689E+00  3.660154803E+00  8.396556941E+01  8.222725994E+01  0.00000E+00  9.000E+00
      11     1     3     3     0     0 -3.149908745E+01 -1.859512852E+01  3.197017103E+01  4.858048118E+01  5.109994604E-04  0.00000E+00  9.000E+00
     -11     1     3     3     0     0  1.538131637E+01  1.463087683E+01 -2.831001623E+01  3.538508824E+01  5.109993328E-04  0.00000E+00  9.000E+00
      -3     1     1     2     0   511  1.611777108E+01  3.964251689E+00 -1.380661952E+01  2.158982581E+01  3.608727765E-07  0.00000E+00  9.000E+00
</event>
<event>
      6  10011  1.00000E+00  1.83703E+01 -1.00000E+00  1.69430E-01
      21    -1     0     0   511   501  0.000000000E+00  0.000000000E+00  4.498235412E+00  4.498235412E+00  0.000000000E+00  0.00000E+00  9.000E+00
       2    -1     0     0   501     0  0.000000000E+00  0.000000000E+00 -1.268992563E+03  1.268992563E+03  0.000000000E+00  0.00000E+00  9.000E+00
      23     2     1     2     0     0 -1.362602529E+01  1.232072166E+01 -1.238520859E+03  1.241677440E+03  8.655331418E+01  0.00000E+00  9.000E+00
      11     1     3     3     0     0 -3.979266854E+01  2.227984433E+00 -1.077187543E+03  1.077924591E+03  5.105918541E-04  0.00000E+00  9.000E+00
     -11     1     3     3     0     0  2.616664324E+01  1.009273723E+01 -1.613333162E+02  1.637528488E+02  5.109897436E-04  0.00000E+00  9.000E+00
       2     1     1     2   511     0  1.362602529E+01 -1.232072166E+01 -2.597346827E+01  3.181335886E+01  1.224028583E-06  0.00000E+00  9.000E+00
</event>
<event>
      6  10011  1.00000E+00  4.59189E+00 -1.00000E+00  2.50007E-01
      -2    -1     0     0     0   501  0.000000000E+00  0.000000000E+00  2.672239379E-01  2.672239379E-01  0.000000000E+00  0.00000E+00  9.000E+00
       2    -1     0     0   511     0  0.000000000E+00  0.000000000E+00 -7.857160654E+02  7.857160654E+02  0.000000000E+00  0.00000E+00  9.000E+00
      23     2     1     2     0     0 -4.063950747E+00 -2.137707850E+00 -6.297727044E+02  6.302394447E+02  2.381203401E+01  0.00000E+00  9.000E+00
      11     1     3     3     0     0  3.043972852E+00  7.672012064E+00 -1.039349466E+02  1.042621631E+02  5.110083693E-04  0.00000E+00  9.000E+00
     -11     1     3     3     0     0 -7.107923599E+00 -9.809719914E+00 -5.258377579E+02  5.259772816E+02  5.110087204E-04  0.00000E+00  9.000E+00
      21     1     1     2   511   501  4.063950747E+00  2.137707850E+00 -1.556761370E+02  1.557438445E+02  2.095931884E-06  0.00000E+00  9.000E+00
</event>
<event>
      6  10011  1.00000E+00  5.16605E+00 -1.00000E+00  2.35977E-01
      -2    -1     0     0     0   501  0.000000000E+00  0.000000000E+00  2.844236262E+02  2.844236262E+02  0.000000000E+00  0.00000E+00  9.000E+00
       2    -1     0     0   511     0  0.000000000E+00  0.000000000E+00 -2.471044760E+01  2.471044760E+01  0.000000000E+00  0.00000E+00  9.000E+00
      23     2     1     2     0     0 -3.618509249E+00  3.687063046E+00  2.765804242E+02  2.914934385E+02  9.189671133E+01  0.00000E+00  9.000E+00
      11     1     3     3     0     0  1.481077983E+01  3.944164524E+00  1.066832593E+00  1.536404130E+01  5.109982362E-04  0.00000E+00  9.000E+00
     -11     1     3     3     0     0 -1.842928908E+01 -2.571014775E-01  2.755135916E+02  2.761293972E+02  5.110030751E-04  0.00000E+00  9.000E+00
      21     1     1     2   511   501  3.618509249E+00 -3.687063046E+00 -1.686724559E+01  1.764063539E+01  5.235325293E-07  0.00000E+00  9.000E+00
</event>
<event>
      6  10011  1.00000E+00  7.54857E+00 -1.00000E+00  2.10956E-01
       2    -1     0     0   511     0  0.000000000E+00  0.000000000E+00  9.694357455E+02  9.694357455E+02  0.000000000E+00  0.00000E+00  9.000E+00
      -2    -1     0     0     0   501  0.000000000E+00  0.000000000E+00 -6.081088279E+00  6.081088279E+00  0.000000000E+00  0.00000E+00  9.000E+00
      23     2     1     2     0     0 -7.133225883E+00 -2.469424339E+00  3.469525132E+02  3.590684709E+02  9.217992946E+01  0.00000E+00  9.000E+00
      11     1     3     3     0     0  2.572626684E+01 -2.338061801E+01  2.755455497E+02  2.777298041E+02  5.110101526E-04  0.00000E+00  9.000E+00
     -11     1     3     3     0     0 -3.285949272E+01  2.091119367E+01  7.140696346E+01  8.133866678E+01  5.110003988E-04  0.00000E+00  9.000E+00
      21     1     1     2   511   501  7.133225883E+00  2.469424339E+00  6.164021440E+02  6.164483629E+02  6.430675487E-06  0.00000E+00  9.000E+00
</event>
<event>
      6  10011  1.00000E+00  2.00108E+00 -1.00000E+00  3.62747E-01
       1    -1     0     0   511     0  0.000000000E+00  0.000000000E+00  2.777373538E-01  2.777373538E-01  0.000000000E+00  0.00000E+00  9.000E+00
      -1    -1     0     0     0   501  0.000000000E+00  0.000000000E+00 -4.131182470E+02  4.131182470E+02  0.000000000E+00  0.00000E+00  9.000E+00
      23     2     1     2     0     0  1.356012734E+00 -1.471585886E+00 -3.889001325E+02  3.893721214E+02  1.906125634E+01  0.00000E+00  9.000E+00
      11     1     3     3     0     0 -7.630631580E+00 -4.318152921E+00 -2.492666885E+02  2.494208391E+02  5.110018549E-04  0.00000E+00  9.000E+00
     -11     1     3     3     0     0  8.986644313E+00  2.846567035E+00 -1.396334440E+02  1.399512823E+02  5.110000125E-04  0.00000E+00  9.000E+00
      21     1     1     2   511   501 -1.356012734E+00  1.471585886E+00 -2.394037713E+01  2.402386298E+01  4.908343879E-07  0.00000E+00  9.000E+00
</event>
<event>
      6  10011  1.00000E+00  2.06868E+00 -1.00000E+00  3.56159E-01
       1    -1     0     0   511     0  0.000000000E+00  0.000000000E+00  6.258529818E+02  6.258529818E+02  0.000000000E+00  0.00000E+00  9.000E+00
      -1    -1     0     0     0   501  0.000000000E+00  0.000000000E+00 -3.604953606E-01  3.604953606E-01  0.000000000E+00  0.00000E+00  9.000E+00
      23     2     1     2     0     0 -1.205675810E+00  1.681004160E+00  4.441780870E+02  4.448872770E+02  2.502472408E+01  0.00000E+00  9.000E+00
      11     1     3     3     0     0 -1.725713808E+00 -6.674340499E+00  3.783268366E+01  3.845564799E+01  5.109982101E-04  0.00000E+00  9.000E+00
     -11     1     3     3     0     0  5.200379976E-01  8.355344659E+00  4.063454034E+02  4.064316290E+02  5.109621932E-04  0.00000E+00  9.000E+00
      21     1     1     2   511   501  1.205675810E+00 -1.681004160E+00  1.813143995E+02  1.813262002E+02  1.413019847E-06  0.00000E+00  9.000E+00
</event>
<event>
      6  10011  1.00000E+00  2.86655E+00 -1.00000E+00  3.02851E-01
      -1    -1     0     0     0   501  0.000000000E+00  0.000000000E+00  1.249258514E+01  1.249258514E+01  0.000000000E+00  0.00000E+00  9.000E+00
      21    -1     0     0   501   511  0.000000000E+00  0.000000000E+00 -2.141888395E+02  2.141888395E+02  0.000000000E+00  0.00000E+00  9.000E+00
      23     2     1     2     0     0  2.758686629E+00  7.789601291E-01 -1.374120815E+02  1.623333710E+02  8.638186185E+01  0.00000E+00  9.000E+00
      11     1     3     3     0     0  9.442887630E+00  7.777448081E-01 -1.488147013E+02  1.491160231E+02  5.109968370E-04  0.00000E+00  9.000E+00
     -11     1     3     3     0     0 -6.684201001E+00  1.215321018E-03  1.140261985E+01  1.321734785E+01  5.109990029E-04  0.00000E+00  9.000E+00
      -1     1     1     2     0   511 -2.758686629E+00 -7.789601291E-01 -6.428417288E+01  6.434805369E+01  6.350063012E-07  0.00000E+00  9.000E+00
</event>
<event>
      6  10011  1.00000E+00  3.17217E+00 -1.00000E+00  2.89570E-01
       1    -1     0     0   501     0  0.000000000E+00  0.000000000E+00  8.683882652E+02  8.683882652E+02  0.000000000E+00  0.00000E+00  9.000E+00
      -1    -1     0     0     0   511  0.000000000E+00  0.000000000E+00 -2.662885430E+00  2.662885430E+00  0.000000000E+00  0.00000E+00  9.000E+00
      23     2     1     2     0     0  2.411379158E+00 -2.061046938E+00  8.597050243E+02  8.642462007E+02  8.842343530E+01  0.00000E+00  9.000E+00
      11     1     3     3     0     0  3.212351490E+01  2.676567212E+01  2.848518609E+02  2.879043314E+02  5.110358339E-04  0.00000E+00  9.000E+00
     -11     1     3     3     0     0 -2.971213574E+01 -2.882671905E+01  5.748531634E+02  5.763418692E+02  5.113172562E-04  0.00000E+00  9.000E+00
      21     1     1     2   501   511 -2.411379158E+00  2.061046938E+00  6.020355482E+00  6.804949967E+00  1.302786801E-07  0.00000E+00  9.000E+00
</event>
<event>
      6  10011  1.00000E+00  7.84419E+00 -1.00000E+00  2.08727E-01
      -1    -1     0     0     0   501  0.000000000E+00  0.000000000E+00  2.300396493E+00  2.300396493E+00  0.000000000E+00  0.00000E+00  9.000E+00
       1    -1     0     0   511     0  0.000000000E+00  0.000000000E+00 -1.138109638E+03  1.138109638E+03  0.000000000E+00  0.00000E+00  9.000E+00
      23     2     1     2     0     0  1.710520899E+00  7.655422014E+00 -9.410327920E+02  9.454756951E+02  9.121427057E+01  0.00000E+00  9.000E+00
      11     1     3     3     0     0 -1.844875426E+01  2.246643061E+01 -1.017806870E+02  1.058508634E+02  5.109735221E-04  0.00000E+00  9.000E+00
     -11     1     3     3     0     0  2.015927516E+01 -1.481100859E+01 -8.392521050E+02  8.396248317E+02  5.108479567E-04  0.00000E+00  9.000E+00
      21     1     1     2   511   501 -1.710520899E+00 -7.655422014E+00 -1.947764497E+02  1.949343396E+02  2.141624000E-06  0.00000E+00  9.000E+00
</event>
<event>
      6  10011  1.00000E+00  5.05447E+00 -1.00000E+00  2.37610E-01
       2    -1     0     0   501     0  0.000000000E+00  0.000000000E+00  1.197970386E+02  1.197970386E+02  0.000000000E+00  0.00000E+00  9.000E+00
      -2    -1     0     0     0   511  0.000000000E+00  0.000000000E+00 -2.324239724E+01  2.324239724E+01  0.000000000E+00  0.00000E+00  9.000E+00
      23     2     1     2     0     0 -1.853558095E+00 -4.702335801E+00  9.327661563E+01  1.370150610E+02  1.002349853E+02  0.00000E+00  9.000E+00
      11     1     3     3     0     0 -1.910983887E+00  2.366520261E+01  1.040095346E+02  1.066849426E+02  5.109979928E-04  0.00000E+00  9.000E+00
     -11     1     3     3     0     0  5.742579182E-02 -2.836753841E+01 -1.073291900E+01  3.033011843E+01  5.109988319E-04  0.00000E+00  9.000E+00
      21     1     1     2   501   511  1.853558095E+00  4.702335801E+00  3.278025724E+00  6.024374842E+00  8.574239378E-08  0.00000E+00  9.000E+00
</event>
<event>
      6  10011  1.00000E+00  3.07359E+00 -1.00000E+00  2.93574E-01
       3    -1     0     0   511     0  0.000000000E+00  0.000000000E+00  8.022496203E+02  8.022496203E+02  0.000000000E+00  0.00000E+00  9.000E+00
      -3    -1     0     0     0   501  0.000000000E+00  0.000000000E+00 -4.058639339E+00  4.058639339E+00  0.000000000E+00  0.00000E+00  9.000E+00
      23     2     1     2     0     0  1.331689609E-01  3.070703089E+00  5.106944117E+02  5.187952611E+02  9.127044384E+01  0.00000E+00  9.000E+00
      11     1     3     3     0     0  3.533739115E+01 -2.739903941E+01  2.417796952E+02  2.458797665E+02  5.110112163E-04  0.00000E+00  9.000E+00
     -11     1     3     3     0     0 -3.520422219E+01  3.046974250E+01  2.689147165E+02  2.729154947E+02  5.110424104E-04  0.00000E+00  9.000E+00
      21     1     1     2   511   501 -1.331689609E-01 -3.070703089E+00  2.874965693E+02  2.875129985E+02  4.127809928E-06  0.00000E+00  9.000E+00
</event>
<event>
      6  10011  1.00000E+00  6.06058E+00 -1.00000E+00  2.24718E-01
      21    -1     0     0   501   511  0.000000000E+00  0.000000000E+00  6.702753971E-01  6.702753971E-01  0.000000000E+00  0.00000E+00  9.000E+00
      -1    -1     0     0     0   501  0.000000000E+00  0.000000000E+00 -2.381248708E+02  2.381248708E+02  0.000000000E+00  0.00000E+00  9.000E+00
      23     2     1     2     0     0  3.638414229E+00  4.846917671E+00 -2.041885039E+02  2.049814876E+02  1.696273661E+01  0.00000E+00  9.000E+00
      11     1     3     3     0     0  2.094797314E+00  1.865869225E+00 -1.972860057E+02  1.973059495E+02  5.109849567E-04  0.00000E+00  9.000E+00
     -11     1     3     3     0     0  1.543616914E+00  2.981048446E+00 -6.902498198E+00  7.675538070E+00  5.109988363E-04  0.00000E+00  9.000E+00
      -1     1     1     2     0   511 -3.638414229E+00 -4.846917671E+00 -3.326609146E+01  3.381365863E+01  6.397094707E-07  0.00000E+00  9.000E+00
</event>
<event>
      6  10011  1.00000E+00  3.79319E+00 -1.00000E+00  2.68910E-01
      21    -1     0     0   511   501  0.000000000E+00  0.000000000E+00  6.560579248E-01  6.560579248E-01  0.000000000E+00  0.00000E+00  9.000E+00
       2    -1     0     0   501     0  0.000000000E+00  0.000000000E+00 -7.039019013E+02  7.039019013E+02  0.000000000E+00  0.00000E+00  9.000E+00
      23     2     1     2     0     0  3.629585157E+00 -1.102005384E+00 -6.950173101E+02  6.954972162E+02  2.555245781E+01  0.00000E+00  9.000E+00
      11     1     3     3     0     0 -1.780752921E+00  6.564386822E+00 -5.607314062E+01  5.648415136E+01  5.109885634E-04  0.00000E+00  9.000E+00
     -11     1     3     3     0     0  5.410338079E+00 -7.666392207E+00 -6.389441695E+02  6.390130648E+02  5.108954679E-04  0.00000E+00  9.000E+00
       2     1     1     2   511     0 -3.629585157E+00  1.102005384E+00 -8.228533272E+00  9.060743021E+00  4.684913586E-07  0.00000E+00  9.000E+00
</event>
<event>
      6  10011  1.00000E+00  2.91097E+00 -1.00000E+00  3.00752E-01
      -2    -1     0     0     0   501  0.000000000E+00  0.000000000E+00  2.551658480E+00  2.551658480E+00  0.000000000E+00  0.00000E+00  9.000E+00
       2    -1     0     0   511     0  0.000000000E+00  0.000000000E+00 -5.375076793E+01  5.375076793E+01  0.000000000E+00  0.00000E+00  9.000E+00
      23     2     1     2     0     0  2.902098839E+00 -2.270328310E-01 -3.861471490E+01  4.338574310E+01  1.956406849E+01  0.00000E+00  9.000E+00
      11     1     3     3     0     0 -5.679022163E+00 -1.196477476E+00 -3.196197768E+01  3.248462511E+01  5.109988250E-04  0.00000E+00  9.000E+00
     -11     1     3     3     0     0  8.581121002E+00  9.694446451E-01 -6.652737214E+00  1.090111798E+01  5.109988406E-04  0.00000E+00  9.000E+00
      21     1     1     2   511   501 -2.902098839E+00  2.270328310E-01 -1.258439455E+01  1.291668332E+01  9.657056180E-08  0.00000E+00  9.000E+00
</event>
<event>
      5  10011  1.00000E+00  8.94427E-01 -1.00000E+00  7.50997E-01
       1    -1     0     0   501     0  0.000000000E+00  0.000000000E+00  2.786205843E-01  2.786205843E-01  0.000000000E+00  0.00000E+00  9.000E+00
      -1    -1     0     0     0   501  0.000000000E+00  0.000000000E+00 -3.646296406E+02  3.646296406E+02  0.000000000E+00  0.00000E+00  9.000E+00
      23     2     1     2     0     0  0.000000000E+00  0.000000000E+00 -3.643510200E+02  3.649082612E+02  2.015870269E+01  0.00000E+00  9.000E+00
      11     1     3     3     0     0  1.703961710E+00 -3.125771211E+00 -3.528699434E+02  3.528879013E+02  5.109693755E-04  0.00000E+00  9.000E+00
     -11     1     3     3     0     0 -1.703961710E+00  3.125771211E+00 -1.148107664E+01  1.202035991E+01  5.109998094E-04  0.00000E+00  9.000E+00
</event>
<event>
      6  10011  1.00000E+00  2.85918E+00 -1.00000E+00  3.03205E-01
      21    -1     0     0   511   501  0.000000000E+00  0.000000000E+00  3.223190344E+01  3.223190344E+01  0.000000000E+00  0.00000E+00  9.000E+00
       2    -1     0     0   501     0  0.000000000E+00  0.000000000E+00 -1.161535584E+02  1.161535584E+02  0.000000000E+00  0.00000E+00  9.000E+00
      23     2     1     2     0     0 -9.315703557E-01 -2.703166088E+00 -9.785621377E+01  1.341605942E+02  9.173359003E+01  0.00000E+00  9.000E+00
      11     1     3     3     0     0 -3.701052308E+01  9.374843906E-01 -8.963259723E+01  9.697762723E+01  5.109977034E-04  0.00000E+00  9.000E+00
     -11     1     3     3     0     0  3.607895272E+01 -3.640650478E+00 -8.223616532E+00  3.718296700E+01  5.109994640E-04  0.00000E+00  9.000E+00
       2     1     1     2   511     0  9.315703557E-01  2.703166088E+00  1.393455879E+01  1.422486763E+01  3.061318361E-07  0.00000E+00  9.000E+00
</event>
<event>
      6  10011  1.00000E+00  1.24469E+01 -1.00000E+00  1.85322E-01
      21    -1     0     0   511   501  0.000000000E+00  0.000000000E+00  9.561088599E+00  9.561088599E+00  0.000000000E+00  0.00000E+00  9.000E+00
       3    -1     0     0   501     0  0.000000000E+00  0.000000000E+00 -5.228851812E+01  5.228851812E+01  0.000000000E+00  0.00000E+00  9.000E+00
      23     2     1     2     0     0 -4.401358644E+00 -1.164271567E+01 -3.993304594E+01  4.909290786E+01  2.570098554E+01  0.00000E+00  9.000E+00
      11     1     3     3     0     0  3.747606053E+00 -2.767181034E+00  2.285255348E+00  5.188856740E+00  5.109989007E-04  0.00000E+00  9.000E+00
     -11     1     3     3     0     0 -8.148964697E+00 -8.875534640E+00 -4.221830129E+01  4.390405112E+01  5.109986438E-04  0.00000E+00  9.000E+00
       3     1     1     2   511     0  4.401358644E+00  1.164271567E+01 -2.794383581E+00  1.275669886E+01  2.106302904E-07  0.00000E+00  9.000E+00
</event>
<event>
      6  10011  1.00000E+00  8.22106E+00 -1.00000E+00  2.06070E-01
       2    -1     0     0   511     0  0.000000000E+00  0.000000000E+00  1.254134112E+02  1.254134112E+02  0.000000000E+00  0.00000E+00  9.000E+00
      -2    -1     0     0     0   501  0.000000000E+00  0.000000000E+00 -2.255457195E+00  2.255457195E+00  0.000000000E+00  0.00000E+00  9.000E+00
      23     2     1     2     0     0  6.832821065E+00 -4.571468470E+00  7.344192406E+01  7.727770448E+01  2.259516833E+01  0.00000E+00  9.000E+00
      11     1     3     3     0     0  3.460132292E+00  8.660247978E+00  1.922308827E+01  2.136584970E+01  5.109990161E-04  0.00000E+00  9.000E+00
     -11     1     3     3     0     0  3.372688772E+00 -1.323171645E+01  5.421883579E+01  5.591185478E+01  5.109992315E-04  0.00000E+00  9.000E+00
      21     1     1     2   511   501 -6.832821065E+00  4.571468470E+00  4.971602993E+01  5.039116390E+01  5.240889011E-07  0.00000E+00  9.000E+00
</event>
<event>
      6  10011  1.00000E+00  7.42529E+00 -1.00000E+00  2.11927E-01
       3    -1     0     0   501     0  0.000000000E+00  0.000000000E+00  4.948844584E+01  4.948844584E+01  0.000000000E+00  0.00000E+00  9.000E+00
      21    -1     0     0   511   501  0.000000000E+00  0.000000000E+00 -8.427984419E+00  8.427984419E+00  0.000000000E+00  0.00000E+00  9.000E+00
      23     2     1     2     0     0 -6.653528030E+00  3.296276597E+00  4.556957931E+01  4.922925473E+01  1.708209847E+01  0.00000E+00  9.000E+00
      11     1     3     3     0     0 -1.032143967E+01  3.080970037E+00  1.515174916E+01  1.859031996E+01  5.109988310E-04  0.00000E+00  9.000E+00
     -11     1     3     3     0     0  3.667911639E+00  2.153065600E-01  3.041783015E+01  3.063893477E+01  5.109984817E-04  0.00000E+00  9.000E+00
       3     1     1     2   511     0  6.653528030E+00 -3.296276597E+00 -4.509117885E+00  8.687175534E+00  1.144352547E-07  0.00000E+00  9.000E+00
</event>
<event>
      6  10011  1.00000E+00  2.88521E+00 -1.00000E+00  3.01962E-01
      -2    -1     0     0     0   511  0.000000000E+00  0.000000000E+00  7.154757119E-01  7.154757119E-01  0.000000000E+00  0.00000E+00  9.000E+00
       2    -1     0     0   501     0  0.000000000E+00  0.000000000E+00 -2.041658360E+02  2.041658360E+02  0.000000000E+00  0.00000E+00  9.000E+00
      23     2     1     2     0     0 -1.882203201E+00  2.186714465E+00 -1.916046684E+02  1.926893133E+02  2.021133584E+01  0.00000E+00  9.000E+00
      11     1     3     3     0     0  6.968337542E+00 -2.694977715E+00 -1.337380774E+02  1.339466087E+02  5.109972194E-04  0.00000E+00  9.000E+00
     -11     1     3     3     0     0 -8.850540743E+00  4.881692180E+00 -5.786659101E+01  5.874270461E+01  5.110018617E-04  0.00000E+00  9.000E+00
      21     1     1     2   501   511  1.882203201E+00 -2.186714465E+00 -1.184569183E+01  1.219199835E+01  2.639966863E-07  0.00000E+00  9.000E+00
</event>
<event>
      6  10011  1.00000E+00  2.95250E+00 -1.00000E+00  2.98846E-01
      -3    -1     0     0     0   501  0.000000000E+00  0.000000000E+00  4.048576970E+01  4.048576970E+01  0.000000000E+00  0.00000E+00  9.000E+00
       3    -1     0     0   511     0  0.000000000E+00  0.000000000E+00 -8.393441575E+01  8.393441575E+01  0.000000000E+00  0.00000E+00  9.000E+00
      23     2     1     2     0     0 -2.478441303E+00  1.604550305E+00 -2.519393146E+01  1.059282451E+02  1.028462040E+02  0.00000E+00  9.000E+00
      11     1     3     3     0     0 -2.989639248E+01  4.345378350E+01 -1.540578264E+01  5.494873722E+01  5.109994379E-04  0.00000E+00  9.000E+00
     -11     1     3     3     0     0  2.741795117E+01 -4.184923319E+01 -9.788148817E+00  5.097950787E+01  5.109990739E-04  0.00000E+00  9.000E+00
      21     1     1     2   511   501  2.478441303E+00 -1.604550305E+00 -1.825471460E+01  1.849194035E+01  5.960464478E-08  0.00000E+00  9.000E+00
</event>
<event>
      6  10011  1.00000E+00  7.37279E+00 -1.00000E+00  2.12348E-01
       2    -1     0     0   501     0  0.000000000E+00  0.000000000E+00  1.642240926E+03  1.642240926E+03  0.000000000E+00  0.00000E+00  9.000E+00
      21    -1     0     0   511   501  0.000000000E+00  0.000000000E+00 -1.879426043E-01  1.879426043E-01  0.000000000E+00  0.00000E+00  9.000E+00
      23     2     1     2     0     0  7.344468050E+00 -6.456241258E-01  6.919098536E+02  6.922571341E+02  2.064790783E+01  0.00000E+00  9.000E+00
      11     1     3     3     0     0  2.025566799E+00 -1.509176945E+00  9.623036595E+00  9.949038621E+00  5.109993826E-04  0.00000E+00  9.000E+00
     -11     1     3     3     0     0  5.318901251E+00  8.635528189E-01  6.822868170E+02  6.823080954E+02  5.109402212E-04  0.00000E+00  9.000E+00
       2     1     1     2   511     0 -7.344468050E+00  6.456241258E-01  9.501431293E+02  9.501717341E+02  2.770173559E-06  0.00000E+00  9.000E+00
</event>
<event>
      6  10011  1.00000E+00  2.95215E+01 -1.00000E+00  1.53491E-01
       2    -1     0     0   501     0  0.000000000E+00  0.000000000E+00  1.228229999E+02  1.228229999E+02  0.000000000E+00  0.00000E+00  9.000E+00
      21    -1     0     0   511   501  0.000000000E+00  0.000000000E+00 -3.713007380E+01  3.713007380E+01  0.000000000E+00  0.00000E+00  9.000E+00
      23     2     1     2     0     0  2.831322502E+01 -8.359562750E+00  9.306361190E+01  1.295253231E+02  8.511434934E+01  0.00000E+00  9.000E+00
      11     1     3     3     0     0 -5.996771328E+00 -3.455418613E+01  1.092187249E+01  3.673200709E+01  5.109980861E-04  0.00000E+00  9.000E+00
     -11     1     3     3     0     0  3.430999635E+01  2.619462338E+01  8.214173941E+01  9.279331602E+01  5.109964742E-04  0.00000E+00  9.000E+00
       2     1     1     2   511     0 -2.831322502E+01  8.359562750E+00 -7.370685751E+00  3.042775064E+01  4.747480198E-07  0.00000E+00  9.000E+00
</event>
<event>
      6  10011  1.00000E+00  5.52743E+00 -1.00000E+00  2.31069E-01
      -3    -1     0     0     0   501  0.000000000E+00  0.000000000E+00  6.440280600E+00  6.440280600E+00  0.000000000E+00  0.00000E+00  9.000E+00
       3    -1     0     0   511     0  0.000000000E+00  0.000000000E+00 -2.758309663E+01  2.758309663E+01  0.000000000E+00  0.00000E+00  9.000E+00
      23     2     1     2     0     0 -1.977783385E+00  5.161479794E+00 -8.179557114E+00  1.993087630E+01  1.731421886E+01  0.00000E+00  9.000E+00
      11     1     3     3     0     0  3.894740494E+00  7.593161862E+00 -1.016470704E+01  1.327201492E+01  5.109989661E-04  0.00000E+00  9.000E+00
     -11     1     3     3     0     0 -5.872523879E+00 -2.431682069E+00  1.985149924E+00  6.658861380E+00  5.109989260E-04  0.00000E+00  9.000E+00
      21     1     1     2   511   501  1.977783385E+00 -5.161479794E+00 -1.296325891E+01  1.409250093E+01  1.545883262E-07  0.00000E+00  9.000E+00
</event>
<event>
      6  10011  1.00000E+00  4.90022E+00 -1.00000E+00  2.44199E-01
      21    -1     0     0   511   501  0.000000000E+00  0.000000000E+00  2.059802074E+00  2.059802074E+00  0.000000000E+00  0.00000E+00  9.000E+00
       2    -1     0     0   501     0  0.000000000E+00  0.000000000E+00 -2.044436706E+02  2.044436706E+02  0.000000000E+00  0.00000E+00  9.000E+00
      23     2     1     2     0     0  2.025473529E+00 -4.462021094E+00 -1.645107021E+02  1.683146142E+02  3.524239035E+01  0.00000E+00  9.000E+00
      11     1     3     3     0     0  1.015643506E+00 -3.138291359E+00 -1.660287469E+02  1.660615103E+02  5.110087587E-04  0.00000E+00  9.000E+00
     -11     1     3     3     0     0  1.009830024E+00 -1.323729734E+00  1.518044787E+00  2.253103931E+00  5.109990333E-04  0.00000E+00  9.000E+00
       2     1     1     2   511     0 -2.025473529E+00  4.462021094E+00 -3.787316646E+01  3.818885850E+01  3.690858506E-07  0.00000E+00  9.000E+00
</event>
<event>
      6  10011  1.00000E+00  1.38590E+00 -1.00000E+00  4.73071E-01
       2    -1     0     0   511     0  0.000000000E+00  0.000000000E+00  3.923542366E+02  3.923542366E+02  0.000000000E+00  0.00000E+00  9.000E+00
      -2    -1     0     0     0   501  0.000000000E+00  0.000000000E+00 -2.333686690E-01  2.333686690E-01  0.000000000E+00  0.00000E+00  9.000E+00
      23     2     1     2     0     0  1.340282563E+00 -3.526651652E-01  3.492021693E+02  3.496465361E+02  1.756770975E+01  0.00000E+00  9.000E+00
      11     1     3     3     0     0  3.509262772E+00  8.025843495E+00  1.488418484E+02  1.490993793E+02  5.109943010E-04  0.00000E+00  9.000E+00
     -11     1     3     3     0     0 -2.168980209E+00 -8.378508660E+00  2.003603210E+02  2.005471568E+02  5.109839347E-04  0.00000E+00  9.000E+00
      21     1     1     2   511   501 -1.340282563E+00  3.526651652E-01  4.291869855E+01  4.294106910E+01  5.337445345E-07  0.00000E+00  9.000E+00
</event>
<event>
      6  10011  1.00000E+00  1.39796E+00 -1.00000E+00  4.69734E-01
      -2    -1     0     0     0   501  0.000000000E+00  0.000000000E+00  1.266636761E+00  1.266636761E+00  0.000000000E+00  0.00000E+00  9.000E+00
       2    -1     0     0   511     0  0.000000000E+00  0.000000000E+00 -2.721937321E+02  2.721937321E+02  0.000000000E+00  0.00000E+00  9.000E+00
      23     2     1     2     0     0 -7.694725401E-01 -1.167135637E+00 -1.279774586E+02  1.305038967E+02  2.551632510E+01  0.00000E+00  9.000E+00
      11     1     3     3     0     0 -5.652816577E+00 -3.445700657E+00 -7.906717221E+00  1.031229197E+01  5.109989358E-04  0.00000E+00  9.000E+00
     -11     1     3     3     0     0  4.883344036E+00  2.278565020E+00 -1.200707414E+02  1.201916047E+02  5.109988984E-04  0.00000E+00  9.000E+00
      21     1     1     2   511   501  7.694725401E-01  1.167135637E+00 -1.429496368E+02  1.429564722E+02  2.231396025E-06  0.00000E+00  9.000E+00
</event>
<event>
      6  10011  1.00000E+00  9.92631E+00 -1.00000E+00  1.96071E-01
      21    -1     0     0   501   511  0.000000000E+00  0.000000000E+00  7.833327998E+00  7.833327998E+00  0.000000000E+00  0.00000E+00  9.000E+00
      -4    -1     0     0     0   501  0.000000000E+00  0.000000000E+00 -6.571702083E+01  6.571702083E+01  0.000000000E+00  0.00000E+00  9.000E+00
      23     2     1     2     0     0  9.781367397E+00  1.690085742E+00 -5.666316711E+01  6.354928784E+01  2.700492436E+01  0.00000E+00  9.000E+00
      11     1     3     3     0     0  2.723033367E+00 -8.807320777E+00 -5.262556404E+00  1.061500401E+01  5.109989104E-04  0.00000E+00  9.000E+00
     -11     1     3     3     0     0  7.058334030E+00  1.049740652E+01 -5.140061071E+01  5.293428382E+01  5.109993151E-04  0.00000E+00  9.000E+00
      -4     1     1     2     0   511 -9.781367397E+00 -1.690085742E+00 -1.220525724E+00  1.000106099E+01  1.464599136E-07  0.00000E+00  9.000E+00
</event>
<event>
      6  10011  1.00000E+00  1.83300E+00 -1.00000E+00  3.81478E-01
       1    -1     0     0   501     0  0.000000000E+00  0.000000000E+00  1.496927365E-01  1.496927365E-01  0.000000000E+00  0.00000E+00  9.000E+00
      21    -1     0     0   511   501  0.000000000E+00  0.000000000E+00 -7.279435574E+02  7.279435574E+02  0.000000000E+00  0.00000E+00  9.000E+00
      23     2     1     2     0     0 -1.396818042E+00 -1.186916632E+00 -5.412389542E+02  5.415293348E+02  1.763675367E+01  0.00000E+00  9.000E+00
      11     1     3     3     0     0  4.164746816E+00  3.320274064E+00 -5.968830740E+01  5.992548187E+01  5.109925662E-04  0.00000E+00  9.000E+00
     -11     1     3     3     0     0 -5.561564858E+00 -4.507190696E+00 -4.815506468E+02  4.816038529E+02  5.110965767E-04  0.00000E+00  9.000E+00
       1     1     1     2   511     0  1.396818042E+00  1.186916632E+00 -1.865549105E+02  1.865639153E+02  8.237525798E-07  0.00000E+00  9.000E+00
</event>
<event>
      6  10011  1.00000E+00  1.71459E+00 -1.00000E+00  3.97197E-01
       2    -1     0     0   511     0  0.000000000E+00  0.000000000E+00  5.140571316E+02  5.140571316E+02  0.000000000E+00  0.00000E+00  9.000E+00
      -2    -1     0     0     0   501  0.000000000E+00  0.000000000E+00 -4.217673213E+00  4.217673213E+00  0.000000000E+00  0.00000E+00  9.000E+00
      23     2     1     2     0     0  1.282113271E+00 -1.138422456E+00  4.984159591E+02  5.067233480E+02  9.136270154E+01  0.00000E+00  9.000E+00
      11     1     3     3     0     0  2.586607869E+00  6.293209340E+00  4.991007100E+02  4.991470863E+02  5.110640999E-04  0.00000E+00  9.000E+00
     -11     1     3     3     0     0 -1.304494598E+00 -7.431631796E+00 -6.847508493E-01  7.576261696E+00  5.109990255E-04  0.00000E+00  9.000E+00
      21     1     1     2   511   501 -1.282113271E+00  1.138422456E+00  1.142349920E+01  1.155145680E+01  8.799889543E-08  0.00000E+00  9.000E+00
</event>
<event>
      6  10011  1.00000E+00  8.05978E+00 -1.00000E+00  2.07183E-01
       2    -1     0     0   501     0  0.000000000E+00  0.000000000E+00  1.031905151E+03  1.031905151E+03  0.000000000E+00  0.00000E+00  9.000E+00
      21    -1     0     0   511   501  0.000000000E+00  0.000000000E+00 -1.776474607E-01  1.776474607E-01  0.000000000E+00  0.00000E+00  9.000E+00
      23     2     1     2     0     0 -2.482748901E+00 -7.667858704E+00  7.323968720E+02  7.326436777E+02  1.722266453E+01  0.00000E+00  9.000E+00
      11     1     3     3     0     0 -3.201406620E+00 -1.044160196E+01  2.501523677E+02  2.503906610E+02  5.109798500E-04  0.00000E+00  9.000E+00
     -11     1     3     3     0     0  7.186577187E-01  2.773743256E+00  4.822445043E+02  4.822530167E+02  5.109132001E-04  0.00000E+00  9.000E+00
       2     1     1     2   511     0  2.482748901E+00  7.667858704E+00  2.993306316E+02  2.994391208E+02  5.818707877E-06  0.00000E+00  9.000E+00
</event>
<event>
      6  10011  1.00000E+00  4.63055E+00 -1.00000E+00  2.49242E-01
      -2    -1     0     0     0   501  0.000000000E+00  0.000000000E+00  1.387767579E+01  1.387767579E+01  0.000000000E+00  0.00000E+00  9.000E+00
      21    -1     0     0   501   511  0.000000000E+00  0.000000000E+00 -8.946173665E+00  8.946173665E+00  0.000000000E+00  0.00000E+00  9.000E+00
      23     2     1     2     0     0 -9.815178181E-01 -4.525327177E+00  5.137619624E+00  1.818871756E+01  1.682237640E+01  0.00000E+00  9.000E+00
      11     1     3     3     0     0  2.503668805E+00 -1.035185500E+01  3.412181910E+00  1.118357032E+01  5.109989368E-04  0.00000E+00  9.000E+00
     -11     1     3     3     0     0 -3.485186623E+00  5.826527823E+00  1.725437715E+00  7.005147239E+00  5.109988832E-04  0.00000E+00  9.000E+00
      -2     1     1     2     0   511  9.815178181E-01  4.525327177E+00 -2.061174991E-01  4.635131898E+00  8.552846797E-08  0.00000E+00  9.000E+00
</event>
<event>
      6  10011  1.00000E+00  2.34558E+00 -1.00000E+00  3.33402E-01
       2    -1     0     0   511     0  0.000000000E+00  0.000000000E+00  7.893084100E+02  7.893084100E+02  0.000000000E+00  0.00000E+00  9.000E+00
      -2    -1     0     0     0   501  0.000000000E+00  0.000000000E+00 -2.784518084E+00  2.784518084E+00  0.000000000E+00  0.00000E+00  9.000E+00
      23     2     1     2     0     0 -2.316345035E+00 -3.691475958E-01  7.116473489E+02  7.171796555E+02  8.887748453E+01  0.00000E+00  9.000E+00
      11     1     3     3     0     0  3.559167945E+01 -2.514463998E+01  3.376553107E+02  3.404557672E+02  5.110497655E-04  0.00000E+00  9.000E+00
     -11     1     3     3     0     0 -3.790802449E+01  2.477549239E+01  3.739920383E+02  3.767238883E+02  5.110185788E-04  0.00000E+00  9.000E+00
      21     1     1     2   511   501  2.316345035E+00  3.691475958E-01  7.487654298E+01  7.491327261E+01  4.823927300E-07  0.00000E+00  9.000E+00
</event>
<event>
      6  10011  1.00000E+00  1.29807E+00 -1.00000E+00  5.00056E-01
       2    -1     0     0   501     0  0.000000000E+00  0.000000000E+00  3.857600515E+02  3.857600515E+02  0.000000000E+00  0.00000E+00  9.000E+00
      -2    -1     0     0     0   511  0.000000000E+00  0.000000000E+00 -4.588766994E-01  4.588766994E-01  0.000000000E+00  0.00000E+00  9.000E+00
      23     2     1     2     0     0 -1.229387006E+00  4.166338135E-01  3.752095846E+02  3.760441963E+02  2.500640378E+01  0.00000E+00  9.000E+00
      11     1     3     3     0     0  8.988875818E+00  7.278230003E+00  1.256255031E+02  1.261568054E+02  5.110011727E-04  0.00000E+00  9.000E+00
     -11     1     3     3     0     0 -1.021826282E+01 -6.861596190E+00  2.495840816E+02  2.498873910E+02  5.109645502E-04  0.00000E+00  9.000E+00
      21     1     1     2   501   511  1.229387006E+00 -4.166338135E-01  1.009159017E+01  1.017473185E+01  1.435566609E-07  0.00000E+00  9.000E+00
</event>
<event>
      6  10011  1.00000E+00  2.29093E+01 -1.00000E+00  1.61606E-01
       1    -1     0     0   511     0  0.000000000E+00  0.000000000E+00  5.187219504E+02  5.187219504E+02  0.000000000E+00  0.00000E+00  9.000E+00
      -1    -1     0     0     0   501  0.000000000E+00  0.000000000E+00 -8.359087955E+00  8.359087955E+00  0.000000000E+00  0.00000E+00  9.000E+00
      23     2     1     2     0     0  7.976382883E+00 -2.147590161E+01  2.577659591E+02  2.734473800E+02  8.834785206E+01  0.00000E+00  9.000E+00
      11     1     3     3     0     0 -1.742868469E+01 -3.238305054E+01  2.343452722E+02  2.372132534E+02  5.109835106E-04  0.00000E+00  9.000E+00
     -11     1     3     3     0     0  2.540506757E+01  1.090714893E+01  2.342068687E+01  3.623412659E+01  5.109985364E-04  0.00000E+00  9.000E+00
      21     1     1     2   511   501 -7.976382883E+00  2.147590161E+01  2.525969034E+02  2.536336584E+02  1.895202767E-06  0.00000E+00  9.000E+00
</event>
<event>
      6  10011  1.00000E+00  9.12616E+00 -1.00000E+00  2.00401E-01
      21    -1     0     0   511   501  0.000000000E+00  0.000000000E+00  1.622428426E+02  1.622428426E+02  0.000000000E+00  0.00000E+00  9.000E+00
       1    -1     0     0   501     0  0.000000000E+00  0.000000000E+00 -4.377125522E+01  4.377125522E+01  0.000000000E+00  0.00000E+00  9.000E+00
      23     2     1     2     0     0 -3.964041360E-01  9.117546401E+00  4.256911900E+00  9.143539613E+01  9.087917021E+01  0.00000E+00  9.000E+00
      11     1     3     3     0     0  3.649903191E+01  1.291288358E+01 -2.333798425E+01  4.520601068E+01  5.109984873E-04  0.00000E+00  9.000E+00
     -11     1     3     3     0     0 -3.689543604E+01 -3.795337181E+00  2.759489615E+01  4.622938545E+01  5.109981323E-04  0.00000E+00  9.000E+00
       1     1     1     2   511     0  3.964041360E-01 -9.117546401E+00  1.142146755E+02  1.145787017E+02  1.089314633E-06  0.00000E+00  9.000E+00
</event>
<event>
      6  10011  1.00000E+00  1.01204E+01 -1.00000E+00  1.95100E-01
       4    -1     0     0   511     0  0.000000000E+00  0.000000000E+00  6.717405565E+01  6.717405565E+01  0.000000000E+00  0.00000E+00  9.000E+00
      -4    -1     0     0     0   501  0.000000000E+00  0.000000000E+00 -4.802640670E+00  4.802640670E+00  0.000000000E+00  0.00000E+00  9.000E+00
      23     2     1     2     0     0  9.151834682E+00  4.320379024E+00  3.392418805E+01  4.178288117E+01  2.219317173E+01  0.00000E+00  9.000E+00
      11     1     3     3     0     0  5.198603440E+00  2.863477727E+00 -1.489774114E+00  6.119183735E+00  5.109989613E-04  0.00000E+00  9.000E+00
     -11     1     3     3     0     0  3.953231243E+00  1.456901296E+00  3.541396216E+01  3.566369744E+01  5.109989240E-04  0.00000E+00  9.000E+00
      21     1     1     2   511   501 -9.151834682E+00 -4.320379024E+00  2.844722693E+01  3.019381514E+01  3.466722406E-07  0.00000E+00  9.000E+00
</event>
<event>
      6  10011  1.00000E+00  6.26179E+01 -1.00000E+00  1.33693E-01
       2    -1     0     0   501     0  0.000000000E+00  0.000000000E+00  2.874520209E+02  2.874520209E+02  0.000000000E+00  0.00000E+00  9.000E+00
      21    -1     0     0   511   501  0.000000000E+00  0.000000000E+00 -1.785458317E+02  1.785458317E+02  0.000000000E+00  0.00000E+00  9.000E+00
      23     2     1     2     0     0 -1.599300121E+01  6.054107869E+01  2.713549970E+02  2.918984171E+02  8.746515427E+01  0.00000E+00  9.000E+00
      11     1     3     3     0     0  2.709123340E+01  6.371265490E+00  3.046995202E+01  4.126676541E+01  5.109996412E-04  0.00000E+00  9.000E+00
     -11     1     3     3     0     0 -4.308423461E+01  5.416981320E+01  2.408850450E+02  2.506316517E+02  5.109932060E-04  0.00000E+00  9.000E+00
       2     1     1     2   511     0  1.599300121E+01 -6.054107869E+01 -1.624488077E+02  1.740994355E+02  2.268111419E-06  0.00000E+00  9.000E+00
</event>
<event>
      6  10011  1.00000E+00  1.27133E+01 -1.00000E+00  1.84378E-01
       2    -1     0     0   501     0  0.000000000E+00  0.000000000E+00  2.667382329E+02  2.667382329E+02  0.000000000E+00  0.00000E+00  9.000E+00
      21    -1     0     0   511   501  0.000000000E+00  0.000000000E+00 -1.200860454E+01  1.200860454E+01  0.000000000E+00  0.00000E+00  9.000E+00
      23     2     1     2     0     0  1.210531616E+01  3.884476962E+00  2.398928083E+02  2.592081816E+02  9.735858526E+01  0.00000E+00  9.000E+00
      11     1     3     3     0     0 -4.012864926E+01  1.468665664E+01  8.067355636E+01  9.129199895E+01  5.109964250E-04  0.00000E+00  9.000E+00
     -11     1     3     3     0     0  5.223396542E+01 -1.080217968E+01  1.592192519E+02  1.679161827E+02  5.109743955E-04  0.00000E+00  9.000E+00
       2     1     1     2   511     0 -1.210531616E+01 -3.884476962E+00  1.483682011E+01  1.953865583E+01  1.988411865E-07  0.00000E+00  9.000E+00
</event>
<event>
      6  10011  1.00000E+00  4.36297E+00 -1.00000E+00  2.54786E-01
      -2    -1     0     0     0   511  0.000000000E+00  0.000000000E+00  1.798999971E+01  1.798999971E+01  0.000000000E+00  0.00000E+00  9.000E+00
       2    -1     0     0   501     0  0.000000000E+00  0.000000000E+00 -1.639755435E+02  1.639755435E+02  0.000000000E+00  0.00000E+00  9.000E+00
      23     2     1     2     0     0  1.136585433E+00  4.212327658E+00 -1.454635894E+02  1.775714600E+02  1.017493589E+02  0.00000E+00  9.000E+00
      11     1     3     3     0     0  4.436471596E+01  2.708266733E+01 -8.706017807E+01  1.013961217E+02  5.109998431E-04  0.00000E+00  9.000E+00
     -11     1     3     3     0     0 -4.322813053E+01 -2.287033968E+01 -5.840341133E+01  7.617533827E+01  5.109997979E-04  0.00000E+00  9.000E+00
      21     1     1     2   501   511 -1.136585433E+00 -4.212327658E+00 -5.219543644E-01  4.394083192E+00  7.263551133E-08  0.00000E+00  9.000E+00
</event>
<event>
      6  10011  1.00000E+00  1.02126E+01 -1.00000E+00  1.94649E-01
      -3    -1     0     0     0   501  0.000000000E+00  0.000000000E+00  1.733539639E+02  1.733539639E+02  0.000000000E+00  0.00000E+00  9.000E+00
      21    -1     0     0   501   511  0.000000000E+00  0.000000000E+00 -2.961024700E+01  2.961024700E+01  0.000000000E+00  0.00000E+00  9.000E+00
      23     2     1     2     0     0  1.011874782E+01 -1.381654276E+00  1.587307625E+02  1.848283470E+02  9.413694729E+01  0.00000E+00  9.000E+00
      11     1     3     3     0     0 -2.333412844E+01  2.974657113E+01  1.169588071E+02  1.229174626E+02  5.110016976E-04  0.00000E+00  9.000E+00
     -11     1     3     3     0     0  3.345287626E+01 -3.112822541E+01  4.177195541E+01  6.191088439E+01  5.109993589E-04  0.00000E+00  9.000E+00
      -3     1     1     2     0   511 -1.011874782E+01  1.381654276E+00 -1.498704560E+01  1.813586397E+01  1.653038541E-07  0.00000E+00  9.000E+00
</event>
<event>
      6  10011  1.00000E+00  2.38363E+01 -1.00000E+00  1.60279E-01
      21    -1     0     0   511   501  0.000000000E+00  0.000000000E+00  1.726431172E+00  1.726431172E+00  0.000000000E+00  0.00000E+00  9.000E+00
       2    -1     0     0   501     0  0.000000000E+00  0.000000000E+00 -5.166134347E+02  5.166134347E+02  0.000000000E+00  0.00000E+00  9.000E+00
      23     2     1     2     0     0  2.163234149E+01  1.001048048E+01 -3.573243174E+02  3.589843891E+02  2.491898659E+01  0.00000E+00  9.000E+00
      11     1     3     3     0     0  1.708412785E+01 -4.853906215E+00 -1.433168459E+02  1.444131094E+02  5.109975548E-04  0.00000E+00  9.000E+00
     -11     1     3     3     0     0  4.548213638E+00  1.486438670E+01 -2.140074715E+02  2.145712798E+02  5.109873902E-04  0.00000E+00  9.000E+00
       2     1     1     2   511     0 -2.163234149E+01 -1.001048048E+01 -1.575626861E+02  1.593554767E+02  1.510833723E-06  0.00000E+00  9.000E+00
</event>
<event>
      6  10011  1.00000E+00  1.36835E+01 -1.00000E+00  1.81177E-01
      -1    -1     0     0     0   511  0.000000000E+00  0.000000000E+00  2.363529854E+01  2.363529854E+01  0.000000000E+00  0.00000E+00  9.000E+00
       1    -1     0     0   501     0  0.000000000E+00  0.000000000E+00 -1.426503081E+02  1.426503081E+02  0.000000000E+00  0.00000E+00  9.000E+00
      23     2     1     2     0     0  1.135785686E+01  7.631281231E+00 -1.216662000E+02  1.523476664E+02  9.066371854E+01  0.00000E+00  9.000E+00
      11     1     3     3     0     0 -2.174385974E+01 -2.572359375E+01 -1.724617446E+01  3.784084097E+01  5.109986135E-04  0.00000E+00  9.000E+00
     -11     1     3     3     0     0  3.310171661E+01  3.335487498E+01 -1.044200256E+02  1.145068254E+02  5.109999109E-04  0.00000E+00  9.000E+00
      21     1     1     2   501   511 -1.135785686E+01 -7.631281231E+00  2.651190519E+00  1.393794020E+01  2.262941383E-07  0.00000E+00  9.000E+00
</event>
<event>
      6  10011  1.00000E+00  2.25671E+00 -1.00000E+00  3.40061E-01
      -1    -1     0     0     0   511  0.000000000E+00  0.000000000E+00  8.889576721E+01  8.889576721E+01  0.000000000E+00  0.00000E+00  9.000E+00
       1    -1     0     0   501     0  0.000000000E+00  0.000000000E+00 -4.078422174E+01  4.078422174E+01  0.000000000E+00  0.00000E+00  9.000E+00
      23     2     1     2     0     0 -2.212708741E+00 -4.434874820E-01  9.556250194E+00  9.105870524E+01  9.052774779E+01  0.00000E+00  9.000E+00
      11     1     3     3     0     0  3.126089861E+01  3.037840703E+01  1.282910027E+01  4.543871928E+01  5.109990327E-04  0.00000E+00  9.000E+00
     -11     1     3     3     0     0 -3.347360735E+01 -3.082189451E+01 -3.272850080E+00  4.561998596E+01  5.109986309E-04  0.00000E+00  9.000E+00
      21     1     1     2   501   511  2.212708741E+00  4.434874820E-01  3.855529528E+01  3.862128371E+01  3.115019941E-07  0.00000E+00  9.000E+00
</event>
<event>
      6  10011  1.00000E+00  1.86764E+01 -1.00000E+00  1.68818E-01
      21    -1     0     0   511   501  0.000000000E+00  0.000000000E+00  7.956033872E+01  7.956033872E+01  0.000000000E+00  0.00000E+00  9.000E+00
       2    -1     0     0   501     0  0.000000000E+00  0.000000000E+00 -2.077928206E+01  2.077928206E+01  0.000000000E+00  0.00000E+00  9.000E+00
      23     2     1     2     0     0  1.640123659E+01 -8.933511034E+00  7.135884279E+01  7.782276299E+01  2.480906717E+01  0.00000E+00  9.000E+00
      11     1     3     3     0     0  3.028021428E+00 -1.570660071E+01  3.428342853E+01  3.783146431E+01  5.109988674E-04  0.00000E+00  9.000E+00
     -11     1     3     3     0     0  1.337321516E+01  6.773089675E+00  3.707541425E+01  3.999129868E+01  5.109988539E-04  0.00000E+00  9.000E+00
       2     1     1     2   511     0 -1.640123659E+01  8.933511034E+00 -1.257778612E+01  2.251685779E+01  8.592428710E-08  0.00000E+00  9.000E+00
</event>
<event>
      6  10011  1.00000E+00  6.16735E+00 -1.00000E+00  2.23555E-01
       2    -1     0     0   501     0  0.000000000E+00  0.000000000E+00  2.309996390E+02  2.309996390E+02  0.000000000E+00  0.00000E+00  9.000E+00
      21    -1     0     0   511   501  0.000000000E+00  0.000000000E+00 -1.195156924E+00  1.195156924E+00  0.000000000E+00  0.00000E+00  9.000E+00
      23     2     1     2     0     0  1.818180459E+00 -5.893256924E+00  2.106517413E+02  2.120735699E+02  2.372776182E+01  0.00000E+00  9.000E+00
      11     1     3     3     0     0 -5.446210928E+00  2.479196486E+00  1.645201408E+02  1.646289292E+02  5.110075281E-04  0.00000E+00  9.000E+00
     -11     1     3     3     0     0  7.264391387E+00 -8.372453410E+00  4.613160050E+01  4.744464062E+01  5.110012627E-04  0.00000E+00  9.000E+00
       2     1     1     2   511     0 -1.818180459E+00  5.893256924E+00  1.915274078E+01  2.012122603E+01  2.143903758E-07  0.00000E+00  9.000E+00
</event>
<event>
      6  10011  1.00000E+00  7.58497E+00 -1.00000E+00  2.10674E-01
      21    -1     0     0   511   501  0.000000000E+00  0.000000000E+00  2.465859020E+02  2.465859020E+02  0.000000000E+00  0.00000E+00  9.000E+00
       3    -1     0     0   501     0  0.000000000E+00  0.000000000E+00 -1.108092056E+00  1.108092056E+00  0.000000000E+00  0.00000E+00  9.000E+00
      23     2     1     2     0     0  2.785862158E+00 -7.054839372E+00  1.452264001E+02  1.471560561E+02  2.250923773E+01  0.00000E+00  9.000E+00
      11     1     3     3     0     0  9.144890572E+00  2.609034261E+00  3.323621594E+01  3.456995999E+01  5.110002572E-04  0.00000E+00  9.000E+00
     -11     1     3     3     0     0 -6.359028415E+00 -9.663873633E+00  1.119901842E+02  1.125860961E+02  5.110006548E-04  0.00000E+00  9.000E+00
       3     1     1     2   511     0 -2.785862158E+00  7.054839372E+00  1.002514099E+02  1.005379380E+02  8.678567278E-07  0.00000E+00  9.000E+00
</event>
<event>
      6  10011  1.00000E+00  2.50406E+00 -1.00000E+00  3.22743E-01
      21    -1     0     0   511   501  0.000000000E+00  0.000000000E+00  1.195731153E+01  1.195731153E+01  0.000000000E+00  0.00000E+00  9.000E+00
       4    -1     0     0   501     0  0.000000000E+00  0.000000000E+00 -4.822418066E+01  4.822418066E+01  0.000000000E+00  0.00000E+00  9.000E+00
      23     2     1     2     0     0  1.562598785E+00 -1.956677912E+00 -4.646023079E+01  4.968506779E+01  1.742936066E+01  0.00000E+00  9.000E+00
      11     1     3     3     0     0  2.472840166E-01 -7.108048780E+00 -7.396787718E+00  1.026148019E+01  5.109989185E-04  0.00000E+00  9.000E+00
     -11     1     3     3     0     0  1.315314768E+00  5.151370868E+00 -3.906344307E+01  3.942358760E+01  5.109988923E-04  0.00000E+00  9.000E+00
       4     1     1     2   511     0 -1.562598785E+00  1.956677912E+00  1.019336165E+01  1.049642440E+01  3.185068741E-07  0.00000E+00  9.000E+00
</event>
<event>
      6  10011  1.00000E+00  4.48020E+00 -1.00000E+00  2.52285E-01
      -2    -1     0     0     0   511  0.000000000E+00  0.000000000E+00  5.982919750E+01  5.982919750E+01  0.000000000E+00  0.00000E+00  9.000E+00
       2    -1     0     0   501     0  0.000000000E+00  0.000000000E+00 -4.545324418E+01  4.545324418E+01  0.000000000E+00  0.00000E+00  9.000E+00
      23     2     1     2     0     0  4.476664811E+00  1.778886394E-01 -7.847167438E+00  8.261221299E+01  8.211654843E+01  0.00000E+00  9.000E+00
      11     1     3     3     0     0 -2.167248590E+01  2.958382634E+01  1.193857822E+01  3.856720208E+01  5.109984755E-04  0.00000E+00  9.000E+00
     -11     1     3     3     0     0  2.614915071E+01 -2.940593770E+01 -1.978574566E+01  4.404501091E+01  5.109987435E-04  0.00000E+00  9.000E+00
      21     1     1     2   501   511 -4.476664811E+00 -1.778886394E-01  2.222312077E+01  2.267022869E+01  1.144579909E-07  0.00000E+00  9.000E+00
</event>
<event>
      6  10011  1.00000E+00  3.53989E+00 -1.00000E+00  2.76516E-01
      21    -1     0     0   511   501  0.000000000E+00  0.000000000E+00  7.614957739E+01  7.614957739E+01  0.000000000E+00  0.00000E+00  9.000E+00
       2    -1     0     0   501     0  0.000000000E+00  0.000000000E+00 -1.893924348E+00  1.893924348E+00  0.000000000E+00  0.00000E+00  9.000E+00
      23     2     1     2     0     0  3.370026514E-01 -3.523807621E+00  6.206568793E+01  6.534995849E+01  2.014786998E+01  0.00000E+00  9.000E+00
      11     1     3     3     0     0  9.377827452E+00  1.324053749E+00  3.850784710E+01  3.965540385E+01  5.109987068E-04  0.00000E+00  9.000E+00
     -11     1     3     3     0     0 -9.040824801E+00 -4.847861370E+00  2.355784083E+01  2.569455463E+01  5.109987853E-04  0.00000E+00  9.000E+00
       2     1     1     2   511     0 -3.370026514E-01  3.523807621E+00  1.218996511E+01  1.269354325E+01  9.305772183E-08  0.00000E+00  9.000E+00
</event>
<event>
      6  10011  1.00000E+00  1.64036E+00 -1.00000E+00  4.08410E-01
      -3    -1     0     0     0   511  0.000000000E+00  0.000000000E+00  8.885791204E+01  8.885791204E+01  0.000000000E+00  0.00000E+00  9.000E+00
       3    -1     0     0   501     0  0.000000000E+00  0.000000000E+00 -4.773262388E+00  4.773262388E+00  0.000000000E+00  0.00000E+00  9.000E+00
      23     2     1     2     0     0  1.467761672E+00 -7.324413059E-01  2.368406400E+01  3.320831831E+01  2.321996388E+01  0.00000E+00  9.000E+00
      11     1     3     3     0     0 -5.911846468E+00  7.392141790E+00  3.240501938E+00  1.000472598E+01  5.109988921E-04  0.00000E+00  9.000E+00
     -11     1     3     3     0     0  7.379608140E+00 -8.124583096E+00  2.044356206E+01  2.320359233E+01  5.109989767E-04  0.00000E+00  9.000E+00
      21     1     1     2   501   511 -1.467761672E+00  7.324413059E-01  6.040058565E+01  6.042285612E+01  4.118762899E-07  0.00000E+00  9.000E+00
</event>
<event>
      5  10011  1.00000E+00  8.94427E-01 -1.00000E+00  7.47112E-01
      -2    -1     0     0     0   501  0.000000000E+00  0.000000000E+00  1.002693061E-01  1.002693061E-01  0.000000000E+00  0.00000E+00  9.000E+00
       2    -1     0     0   501     0  0.000000000E+00  0.000000000E+00 -1.591786416E+03  1.591786416E+03  0.000000000E+00  0.00000E+00  9.000E+00
      23     2     1     2     0     0  0.000000000E+00  0.000000000E+00 -1.591686146E+03  1.591886685E+03  2.526715808E+01  0.00000E+00  9.000E+00
      11     1     3     3     0     0  5.373638860E+00  8.824538184E-01 -7.763837988E+01  7.782912533E+01  5.109758691E-04  0.00000E+00  9.000E+00
     -11     1     3     3     0     0 -5.373638860E+00 -8.824538184E-01 -1.514047767E+03  1.514057560E+03  5.105305084E-04  0.00000E+00  9.000E+00
</event>
<event>
      6  10011  1.00000E+00  1.61198E+00 -1.00000E+00  4.13023E-01
      21    -1     0     0   511   501  0.000000000E+00  0.000000000E+00  5.304441593E+02  5.304441593E+02  0.000000000E+00  0.00000E+00  9.000E+00
       2    -1     0     0   501     0  0.000000000E+00  0.000000000E+00 -6.242594838E+00  6.242594838E+00  0.000000000E+00  0.00000E+00  9.000E+00
      23     2     1     2     0     0 -4.528546964E-01  1.547062058E+00  1.794397705E+01  3.042660037E+01  2.451924182E+01  0.00000E+00  9.000E+00
      11     1     3     3     0     0 -4.816735258E+00  6.518641225E+00 -2.860985026E+00  8.595281121E+00  5.109989769E-04  0.00000E+00  9.000E+00
     -11     1     3     3     0     0  4.363880562E+00 -4.971579167E+00  2.080496207E+01  2.183131925E+01  5.109989675E-04  0.00000E+00  9.000E+00
       2     1     1     2   511     0  4.528546964E-01 -1.547062058E+00  5.062575875E+02  5.062601538E+02  6.169008748E-06  0.00000E+00  9.000E+00
</event>
<event>
      6  10011  1.00000E+00  5.37499E+00 -1.00000E+00  2.33073E-01
      -1    -1     0     0     0   501  0.000000000E+00  0.000000000E+00  1.113505764E+02  1.113505764E+02  0.000000000E+00  0.00000E+00  9.000E+00
      21    -1     0     0   501   511  0.000000000E+00  0.000000000E+00 -3.024847789E+00  3.024847789E+00  0.000000000E+00  0.00000E+00  9.000E+00
      23     2     1     2     0     0 -3.175156325E-01 -5.365602544E+00  5.812751013E+01  6.389026156E+01  2.596666289E+01  0.00000E+00  9.000E+00
      11     1     3     3     0     0 -2.395928242E+00 -6.719711536E+00  6.022235997E+01  6.064344677E+01  5.109988991E-04  0.00000E+00  9.000E+00
     -11     1     3     3     0     0  2.078412610E+00  1.354108992E+00 -2.094849845E+00  3.246814789E+00  5.109988679E-04  0.00000E+00  9.000E+00
      -1     1     1     2     0   511  3.175156325E-01  5.365602544E+00  5.019821846E+01  5.048516260E+01  7.435664505E-07  0.00000E+00  9.000E+00
</event>
<event>
      6  10011  1.00000E+00  4.25270E+01 -1.00000E+00  1.43179E-01
      -3    -1     0     0     0   501  0.000000000E+00  0.000000000E+00  6.278412288E+01  6.278412288E+01  0.000000000E+00  0.00000E+00  9.000E+00
      21    -1     0     0   501   511  0.000000000E+00  0.000000000E+00 -8.137059450E+01  8.137059450E+01  0.000000000E+00  0.00000E+00  9.000E+00
      23     2     1     2     0     0 -3.843157458E+01  1.820882250E+01 -1.673483657E+01  1.015874096E+02  9.072706259E+01  0.00000E+00  9.000E+00
      11     1     3     3     0     0 -4.241260060E+01 -1.289016398E+00  2.921257274E+01  5.151567391E+01  5.109983487E-04  0.00000E+00  9.000E+00
     -11     1     3     3     0     0  3.981026016E+00  1.949783889E+01 -4.594740930E+01  5.007173566E+01  5.109982777E-04  0.00000E+00  9.000E+00
      -3     1     1     2     0   511  3.843157458E+01 -1.820882250E+01 -1.851635057E+00  4.256730781E+01  7.380002762E-07  0.00000E+00  9.000E+00
</event>
<event>
      6  10011  1.00000E+00  4.21940E+00 -1.00000E+00  2.58019E-01
      -2    -1     0     0     0   501  0.000000000E+00  0.000000000E+00  9.855178961E+00  9.855178961E+00  0.000000000E+00  0.00000E+00  9.000E+00
       2    -1     0     0   511     0  0.000000000E+00  0.000000000E+00 -2.374718274E+02  2.374718274E+02  0.000000000E+00  0.00000E+00  9.000E+00
      23     2     1     2     0     0  3.772949884E+00  1.888961267E+00 -2.078286313E+02  2.270941383E+02  9.143962140E+01  0.00000E+00  9.000E+00
      11     1     3     3     0     0 -3.177574949E+00 -1.166693835E+01  5.456227902E+00  1.326592839E+01  5.109995598E-04  0.00000E+00  9.000E+00
     -11     1     3     3     0     0  6.950524833E+00  1.355589962E+01 -2.132848592E+02  2.138282099E+02  5.110036070E-04  0.00000E+00  9.000E+00
      21     1     1     2   511   501 -3.772949884E+00 -1.888961267E+00 -1.978801717E+01  2.023286804E+01  1.846932658E-07  0.00000E+00  9.000E+00
</event>
<event>
      6  10011  1.00000E+00  4.56252E+00 -1.00000E+00  2.50596E-01
      -2    -1     0     0     0   511  0.000000000E+00  0.000000000E+00  9.369344419E+00  9.369344419E+00  0.000000000E+00  0.00000E+00  9.000E+00
       2    -1     0     0   501     0  0.000000000E+00  0.000000000E+00 -3.029146327E+02  3.029146327E+02  0.000000000E+00  0.00000E+00  9.000E+00
      23     2     1     2     0     0 -2.825656542E+00 -3.582218294E+00 -2.938463509E+02  3.077115312E+02  9.121344118E+01  0.00000E+00  9.000E+00
      11     1     3     3     0     0 -2.837511813E+01  8.056676473E+00 -2.894449160E+01  4.132603246E+01  5.109962540E-04  0.00000E+00  9.000E+00
     -11     1     3     3     0     0  2.554946159E+01 -1.163889477E+01 -2.649018593E+02  2.663854987E+02  5.109808199E-04  0.00000E+00  9.000E+00
      21     1     1     2   501   511  2.825656542E+00  3.582218294E+00  3.010626705E-01  4.572445903E+00  9.178320115E-08  0.00000E+00  9.000E+00
</event>
<event>
      6  10011  1.00000E+00  1.93792E+01 -1.00000E+00  1.67465E-01
      -3    -1     0     0     0   511  0.000000000E+00  0.000000000E+00  2.160638175E+02  2.160638175E+02  0.000000000E+00  0.00000E+00  9.000E+00
       3    -1     0     0   501     0  0.000000000E+00  0.000000000E+00 -1.475966988E+01  1.475966988E+01  0.000000000E+00  0.00000E+00  9.000E+00
      23     2     1     2     0     0 -1.872203769E+01  5.003980077E+00  1.632822768E+02  1.881477663E+02  9.144903238E+01  0.00000E+00  9.000E+00
      11     1     3     3     0     0  3.144304460E+01  2.227699697E+01  5.062530576E+01  6.362272574E+01  5.109999713E-04  0.00000E+00  9.000E+00
     -11     1     3     3     0     0 -5.016508229E+01 -1.727301689E+01  1.126569711E+02  1.245250406E+02  5.110000525E-04  0.00000E+00  9.000E+00
      21     1     1     2   501   511  1.872203769E+01 -5.003980077E+00  3.802187076E+01  4.267572106E+01  3.662170687E-07  0.00000E+00  9.000E+00
</event>
<event>
      6  10011  1.00000E+00  7.42191E+00 -1.00000E+00  2.11954E-01
      -2    -1     0     0     0   501  0.000000000E+00  0.000000000E+00  6.279046021E+02  6.279046021E+02  0.000000000E+00  0.00000E+00  9.000E+00
      21    -1     0     0   501   511  0.000000000E+00  0.000000000E+00 -3.301468299E+01  3.301468299E+01  0.000000000E+00  0.00000E+00  9.000E+00
      23     2     1     2     0     0 -5.543630764E+00 -4.934871240E+00  6.240776776E+02  6.308026777E+02  9.156410694E+01  0.00000E+00  9.000E+00
      11     1     3     3     0     0 -2.281820510E+01  1.985249384E+01  7.464393612E+01  8.053886761E+01  5.109874588E-04  0.00000E+00  9.000E+00
     -11     1     3     3     0     0  1.727457434E+01 -2.478736508E+01  5.494337415E+02  5.502638101E+02  5.109199729E-04  0.00000E+00  9.000E+00
      -2     1     1     2     0   511  5.543630764E+00  4.934871240E+00 -2.918775850E+01  3.011660742E+01  1.033162101E-06  0.00000E+00  9.000E+00
</event>
<event>
      6  10011  1.00000E+00  2.24612E+00 -1.00000E+00  3.40892E-01
       2    -1     0     0   501     0  0.000000000E+00  0.000000000E+00  8.032113600E+00  8.032113600E+00  0.000000000E+00  0.00000E+00  9.000E+00
      21    -1     0     0   511   501  0.000000000E+00  0.000000000E+00 -4.580290308E+01  4.580290308E+01  0.000000000E+00  0.00000E+00  9.000E+00
      23     2     1     2     0     0 -2.005350043E+00 -1.011738281E+00 -2.998060106E+01  4.572748446E+01  3.445462744E+01  0.00000E+00  9.000E+00
      11     1     3     3     0     0  5.920679855E+00  1.354313194E+01 -2.384627323E+01  2.805558090E+01  5.109989727E-04  0.00000E+00  9.000E+00
     -11     1     3     3     0     0 -7.926029897E+00 -1.455487022E+01 -6.134327836E+00  1.767190356E+01  5.109990182E-04  0.00000E+00  9.000E+00
       2     1     1     2   511     0  2.005350043E+00  1.011738281E+00 -7.790188413E+00  8.107532218E+00  1.237923551E-07  0.00000E+00  9.000E+00
</event>
<event>
      6  10011  1.00000E+00  1.72221E+00 -1.00000E+00  3.96110E-01
      -2    -1     0     0     0   511  0.000000000E+00  0.000000000E+00  2.096279377E+01  2.096279377E+01  0.000000000E+00  0.00000E+00  9.000E+00
       2    -1     0     0   501     0  0.000000000E+00  0.000000000E+00 -3.787709205E+01  3.787709205E+01  0.000000000E+00  0.00000E+00  9.000E+00
      23     2     1     2     0     0 -1.415326008E-01 -1.716386873E+00 -2.038886025E+01  5.496192291E+01  5.101118831E+01  0.00000E+00  9.000E+00
      11     1     3     3     0     0  1.474045192E+01 -1.463273465E+01  6.374824506E+00  2.172639486E+01  5.109991345E-04  0.00000E+00  9.000E+00
     -11     1     3     3     0     0 -1.488198452E+01  1.291634777E+01 -2.676368475E+01  3.323552805E+01  5.109991254E-04  0.00000E+00  9.000E+00
      21     1     1     2   501   511  1.415326008E-01  1.716386873E+00  3.474561972E+00  3.877962902E+00  1.232023961E-08  0.00000E+00  9.000E+00
</event>
<event>
      6  10011  1.00000E+00  5.77091E+00 -1.00000E+00  2.28050E-01
      -2    -1     0     0     0   501  0.000000000E+00  0.000000000E+00  5.114109754E+01  5.114109754E+01  0.000000000E+00  0.00000E+00  9.000E+00
       2    -1     0     0   511     0  0.000000000E+00  0.000000000E+00 -6.142797344E+01  6.142797344E+01  0.000000000E+00  0.00000E+00  9.000E+00
      23     2     1     2     0     0 -4.651081845E+00  3.416263370E+00  9.334296374E+00  9.211683835E+01  9.146080801E+01  0.00000E+00  9.000E+00
      11     1     3     3     0     0  2.147510415E+01  4.749508882E+00  4.370259905E+01  4.892499460E+01  5.109986249E-04  0.00000E+00  9.000E+00
     -11     1     3     3     0     0 -2.612618599E+01 -1.333245512E+00 -3.436830267E+01  4.319184376E+01  5.109985250E-04  0.00000E+00  9.000E+00
      21     1     1     2   511   501  4.651081845E+00 -3.416263370E+00 -1.962117227E+01  2.045223262E+01  2.476127350E-07  0.00000E+00  9.000E+00
</event>
<event>
      6  10011  1.00000E+00  3.31191E+00 -1.00000E+00  2.84286E-01
      -1    -1     0     0     0   501  0.000000000E+00  0.000000000E+00  5.527206907E+02  5.527206907E+02  0.000000000E+00  0.00000E+00  9.000E+00
      21    -1     0     0   501   511  0.000000000E+00  0.000000000E+00 -1.475434430E+01  1.475434430E+01  0.000000000E+00  0.00000E+00  9.000E+00
      23     2     1     2     0     0 -2.967825559E+00  1.469948851E+00  5.489221619E+02  5.560295716E+02  8.855719010E+01  0.00000E+00  9.000E+00
      11     1     3     3     0     0  3.170325228E+01  5.706985297E+00  8.672183229E+01  9.251130786E+01  5.109899179E-04  0.00000E+00  9.000E+00
     -11     1     3     3     0     0 -3.467107784E+01 -4.237036445E+00  4.622003297E+02  4.635182638E+02  5.110474992E-04  0.00000E+00  9.000E+00
      -1     1     1     2     0   511  2.967825559E+00 -1.469948851E+00 -1.095581553E+01  1.144546338E+01  9.379745390E-07  0.00000E+00  9.000E+00
</event>
<event>
      6  10011  1.00000E+00  6.12917E+00 -1.00000E+00  2.23967E-01
       2    -1     0     0   501     0  0.000000000E+00  0.000000000E+00  9.483227945E+02  9.483227945E+02  0.000000000E+00  0.00000E+00  9.000E+00
      21    -1     0     0   511   501  0.000000000E+00  0.000000000E+00 -5.518614834E-01  5.518614834E-01  0.000000000E+00  0.00000E+00  9.000E+00
      23     2     1     2     0     0 -6.110229355E+00 -4.814212311E-01  8.952310993E+02  8.959785238E+02  3.607252906E+01  0.00000E+00  9.000E+00
      11     1     3     3     0     0  8.959134606E+00  7.429627270E+00  1.205670640E+02  1.211275459E+02  5.110193357E-04  0.00000E+00  9.000E+00
     -11     1     3     3     0     0 -1.506936396E+01 -7.911048501E+00  7.746640353E+02  7.748509780E+02  5.111474150E-04  0.00000E+00  9.000E+00
       2     1     1     2   511     0  6.110229355E+00  4.814212311E-01  5.253983374E+01  5.289613217E+01  8.438584289E-07  0.00000E+00  9.000E+00
</event>
<event>
      6  10011  1.00000E+00  5.27565E+00 -1.00000E+00  2.34430E-01
      21    -1     0     0   511   501  0.000000000E+00  0.000000000E+00  2.545204369E+00  2.545204369E+00  0.000000000E+00  0.00000E+00  9.000E+00
       2    -1     0     0   501     0  0.000000000E+00  0.000000000E+00 -1.313695075E+03  1.313695075E+03  0.000000000E+00  0.00000E+00  9.000E+00
      23     2     1     2     0     0  3.962622494E+00  3.482837041E+00 -1.310783953E+03  1.310951950E+03  2.031279898E+01  0.00000E+00  9.000E+00
      11     1     3     3     0     0  9.542401453E+00  7.408167167E+00 -1.078983192E+03  1.079050817E+03  5.113469935E-04  0.00000E+00  9.000E+00
     -11     1     3     3     0     0 -5.579778959E+00 -3.925330126E+00 -2.318007616E+02  2.319011324E+02  5.110271404E-04  0.00000E+00  9.000E+00
       2     1     1     2   511     0 -3.962622494E+00 -3.482837041E+00 -3.659169516E-01  5.288329236E+00  5.339743408E-07  0.00000E+00  9.000E+00
</event>
<event>
      6  10011  1.00000E+00  2.31958E+00 -1.00000E+00  3.35295E-01
      -1    -1     0     0     0   501  0.000000000E+00  0.000000000E+00  5.440242240E+00  5.440242240E+00  0.000000000E+00  0.00000E+00  9.000E+00
       1    -1     0     0   511     0  0.000000000E+00  0.000000000E+00 -4.071912572E+02  4.071912572E+02  0.000000000E+00  0.00000E+00  9.000E+00
      23     2     1     2     0     0 -7.776934010E-01 -2.185320234E+00 -3.645327020E+02  3.753409745E+02  8.939449575E+01  0.00000E+00  9.000E+00
      11     1     3     3     0     0  6.017991559E+00  1.846886627E+01 -1.354598371E+01  2.368140449E+01  5.109977843E-04  0.00000E+00  9.000E+00
     -11     1     3     3     0     0 -6.795684960E+00 -2.065418650E+01 -3.509867183E+02  3.516595700E+02  5.110122522E-04  0.00000E+00  9.000E+00
      21     1     1     2   511   501  7.776934010E-01  2.185320234E+00 -3.721831297E+01  3.729052496E+01  5.479090306E-07  0.00000E+00  9.000E+00
</event>
<event>
      6  10011  1.00000E+00  1.61109E+00 -1.00000E+00  4.13170E-01
      -2    -1     0     0     0   511  0.000000000E+00  0.000000000E+00  1.216293228E-01  1.216293228E-01  0.000000000E+00  0.00000E+00  9.000E+00
       2    -1     0     0   501     0  0.000000000E+00  0.000000000E+00 -9.659622826E+02  9.659622826E+02  0.000000000E+00  0.00000E+00  9.000E+00
      23     2     1     2     0     0 -1.573941707E+00 -3.439686540E-01 -9.358775612E+02  9.360775377E+02  1.928085656E+01  0.00000E+00  9.000E+00
      11     1     3     3     0     0 -2.605745504E+00  7.800512481E+00 -7.152635247E+02  7.153108050E+02  5.110426746E-04  0.00000E+00  9.000E+00
     -11     1     3     3     0     0  1.031803797E+00 -8.144481135E+00 -2.206140365E+02  2.207667327E+02  5.110076428E-04  0.00000E+00  9.000E+00
      21     1     1     2   501   511  1.573941707E+00  3.439686540E-01 -2.996309209E+01  3.000637423E+01  5.049932958E-07  0.00000E+00  9.000E+00
</event>
<event>
      5  10011  1.00000E+00  8.94427E-01 -1.00000E+00  6.96452E-01
      -2    -1     0     0     0   501  0.000000000E+00  0.000000000E+00  2.719137217E-01  2.719137217E-01  0.000000000E+00  0.00000E+00  9.000E+00
       2    -1     0     0   501     0  0.000000000E+00  0.000000000E+00 -4.069682035E+02  4.069682035E+02  0.000000000E+00  0.00000E+00  9.000E+00
      23     2     1     2     0     0  0.000000000E+00  0.000000000E+00 -4.066962898E+02  4.072401172E+02  2.103903409E+01  0.00000E+00  9.000E+00
      11     1     3     3     0     0 -4.287401646E+00 -2.810783935E+00 -2.554511287E+01  2.605446432E+01  5.109964198E-04  0.00000E+00  9.000E+00
     -11     1     3     3     0     0  4.287401646E+00  2.810783935E+00 -3.811511769E+02  3.811856529E+02  5.109975131E-04  0.00000E+00  9.000E+00
</event>
<event>
      6  10011  1.00000E+00  5.09791E+00 -1.00000E+00  2.36967E-01
       4    -1     0     0   501     0  0.000000000E+00  0.000000000E+00  2.359141594E-01  2.359141594E-01  0.000000000E+00  0.00000E+00  9.000E+00
      21    -1     0     0   511   501  0.000000000E+00  0.000000000E+00 -8.531134186E+02  8.531134186E+02  0.000000000E+00  0.00000E+00  9.000E+00
      23     2     1     2     0     0  4.396400646E+00  2.580757221E+00 -7.413141581E+02  7.416695723E+02  2.238492462E+01  0.00000E+00  9.000E+00
      11     1     3     3     0     0  5.266129693E+00  1.074503055E+01 -5.984905852E+02  5.986101974E+02  5.109638619E-04  0.00000E+00  9.000E+00
     -11     1     3     3     0     0 -8.697290471E-01 -8.164273327E+00 -1.428235729E+02  1.430593749E+02  5.109657392E-04  0.00000E+00  9.000E+00
       4     1     1     2   511     0 -4.396400646E+00 -2.580757221E+00 -1.115633463E+02  1.116797604E+02  7.856742338E-07  0.00000E+00  9.000E+00
</event>
<event>
      6  10011  1.00000E+00  1.69209E+01 -1.00000E+00  1.72546E-01
      -5    -1     0     0     0   501  0.000000000E+00  0.000000000E+00  2.578924853E+01  2.578924853E+01  0.000000000E+00  0.00000E+00  9.000E+00
      21    -1     0     0   501   511  0.000000000E+00  0.000000000E+00 -1.492724021E+02  1.492724021E+02  0.000000000E+00  0.00000E+00  9.000E+00
      23     2     1     2     0     0 -1.147816762E+01 -1.243250913E+01 -6.564863219E+01  1.148026473E+02  9.264766221E+01  0.00000E+00  9.000E+00
      11     1     3     3     0     0 -4.565161145E+01 -2.891456916E+01 -5.046061016E+01  7.393507365E+01  5.109978912E-04  0.00000E+00  9.000E+00
     -11     1     3     3     0     0  3.417344382E+01  1.648206003E+01 -1.518802202E+01  4.086757369E+01  5.109993783E-04  0.00000E+00  9.000E+00
      -5     1     1     2     0   511  1.147816762E+01  1.243250913E+01 -5.783452141E+01  6.025900333E+01  5.312425932E-07  0.00000E+00  9.000E+00
</event>
<event>
      6  10011  1.00000E+00  1.18302E+01 -1.00000E+00  1.87628E-01
      21    -1     0     0   501   511  0.000000000E+00  0.000000000E+00  2.191785330E+01  2.191785330E+01  0.000000000E+00  0.00000E+00  9.000E+00
      -1    -1     0     0     0   501  0.000000000E+00  0.000000000E+00 -4.515432698E+02  4.515432698E+02  0.000000000E+00  0.00000E+00  9.000E+00
      23     2     1     2     0     0 -2.432493741E+00 -1.157740291E+01 -4.448190835E+02  4.542049345E+02  9.109419414E+01  0.00000E+00  9.000E+00
      11     1     3     3     0     0  7.548800566E+00 -5.080108477E+01 -2.433364516E+02  2.486973327E+02  5.110366369E-04  0.00000E+00  9.000E+00
     -11     1     3     3     0     0 -9.981294307E+00  3.922368186E+01 -2.014826318E+02  2.055076018E+02  5.110149288E-04  0.00000E+00  9.000E+00
      -1     1     1     2     0   511  2.432493741E+00  1.157740291E+01  1.519366697E+01  1.925618861E+01  4.912724374E-07  0.00000E+00  9.000E+00
</event>
<event>
      6  10011  1.00000E+00  1.61951E+01 -1.00000E+00  1.74258E-01
      21    -1     0     0   511   501  0.000000000E+00  0.000000000E+00  1.475521167E+02  1.475521167E+02  0.000000000E+00  0.00000E+00  9.000E+00
       4    -1     0     0   501     0  0.000000000E+00  0.000000000E+00 -5.264898164E+01  5.264898164E+01  0.000000000E+00  0.00000E+00  9.000E+00
      23     2     1     2     0     0  9.347900888E+00  1.322491467E+01 -8.279394480E+00  9.575534199E+01  9.401199672E+01  0.00000E+00  9.000E+00
      11     1     3     3     0     0  2.067471838E+00 -3.310690790E+01  2.211494134E+01  3.986743560E+01  5.109975394E-04  0.00000E+00  9.000E+00
     -11     1     3     3     0     0  7.280429050E+00  4.633182257E+01 -3.039433582E+01  5.588790639E+01  5.109984128E-04  0.00000E+00  9.000E+00
       4     1     1     2   511     0 -9.347900888E+00 -1.322491467E+01  1.031825296E+02  1.044457564E+02  1.074538015E-07  0.00000E+00  9.000E+00
</event>
<event>
      6  10011  1.00000E+00  1.49225E+01 -1.00000E+00  1.77548E-01
      21    -1     0     0   501   511  0.000000000E+00  0.000000000E+00  9.245481168E+00  9.245481168E+00  0.000000000E+00  0.00000E+00  9.000E+00
      -2    -1     0     0     0   501  0.000000000E+00  0.000000000E+00 -1.610801713E+02  1.610801713E+02  0.000000000E+00  0.00000E+00  9.000E+00
      23     2     1     2     0     0 -1.394844325E+01  5.302955963E+00 -1.254869976E+02  1.400456043E+02  6.035813390E+01  0.00000E+00  9.000E+00
      11     1     3     3     0     0  1.207179073E+01  3.445295715E+00 -7.132341846E-01  1.257405652E+01  5.109989514E-04  0.00000E+00  9.000E+00
     -11     1     3     3     0     0 -2.602023398E+01  1.857660248E+00 -1.247737634E+02  1.274715478E+02  5.109920397E-04  0.00000E+00  9.000E+00
      -2     1     1     2     0   511  1.394844325E+01 -5.302955963E+00 -2.634769263E+01  3.028004818E+01  2.170920712E-07  0.00000E+00  9.000E+00
</event>
<event>
      6  10011  1.00000E+00  5.60593E+00 -1.00000E+00  2.30072E-01
      -3    -1     0     0     0   501  0.000000000E+00  0.000000000E+00  4.185816091E+01  4.185816091E+01  0.000000000E+00  0.00000E+00  9.000E+00
      21    -1     0     0   501   511  0.000000000E+00  0.000000000E+00 -5.606747459E+01  5.606747459E+01  0.000000000E+00  0.00000E+00  9.000E+00
      23     2     1     2     0     0  4.976700528E+00 -2.580478778E+00 -5.526822621E+00  8.759064300E+01  8.723616541E+01  0.00000E+00  9.000E+00
      11     1     3     3     0     0  3.598771532E+01  1.045237158E+01  2.258303860E+01  4.375341539E+01  5.109990306E-04  0.00000E+00  9.000E+00
     -11     1     3     3     0     0 -3.101101479E+01 -1.303285036E+01 -2.810986122E+01  4.383722762E+01  5.109999310E-04  0.00000E+00  9.000E+00
      -3     1     1     2     0   511 -4.976700528E+00  2.580478778E+00 -8.682491057E+00  1.033499249E+01  1.589263157E-07  0.00000E+00  9.000E+00
</event>
<event>
      5  10011  1.00000E+00  8.94427E-01 -1.00000E+00  7.38132E-01
      -2    -1     0     0     0   501  0.000000000E+00  0.000000000E+00  8.865932583E-01  8.865932583E-01  0.000000000E+00  0.00000E+00  9.000E+00
       2    -1     0     0   501     0  0.000000000E+00  0.000000000E+00 -9.121138860E+01  9.121138860E+01  0.000000000E+00  0.00000E+00  9.000E+00
      23     2     1     2     0     0  0.000000000E+00  0.000000000E+00 -9.032479535E+01  9.209798186E+01  1.798526088E+01  0.00000E+00  9.000E+00
      11     1     3     3     0     0 -1.140539344E+00 -1.885576947E+00 -8.980732137E+01  8.983435424E+01  5.110011506E-04  0.00000E+00  9.000E+00
     -11     1     3     3     0     0  1.140539344E+00  1.885576947E+00 -5.174739747E-01  2.263627618E+00  5.109989060E-04  0.00000E+00  9.000E+00
</event>
<event>
      6  10011  1.00000E+00  1.92937E+00 -1.00000E+00  3.70294E-01
       2    -1     0     0   501     0  0.000000000E+00  0.000000000E+00  6.308178956E+02  6.308178956E+02  0.000000000E+00  0.00000E+00  9.000E+00
      21    -1     0     0   511   501  0.000000000E+00  0.000000000E+00 -9.651246243E+00  9.651246243E+00  0.000000000E+00  0.00000E+00  9.000E+00
      23     2     1     2     0     0  6.956638096E-01 -1.799588376E+00  6.302912359E+02  6.311428057E+02  3.271813895E+01  0.00000E+00  9.000E+00
      11     1     3     3     0     0  1.885500232E+00 -1.555741769E+01  1.935806876E+02  1.942139824E+02  5.110132881E-04  0.00000E+00  9.000E+00
     -11     1     3     3     0     0 -1.189836423E+00  1.375782932E+01  4.367105483E+02  4.369288232E+02  5.109780040E-04  0.00000E+00  9.000E+00
       2     1     1     2   511     0 -6.956638096E-01  1.799588376E+00 -9.124586559E+00  9.326336169E+00  2.514777904E-07  0.00000E+00  9.000E+00
</event>
<event>
      6  10011  1.00000E+00  5.97247E+00 -1.00000E+00  2.25704E-01
      21    -1     0     0   511   501  0.000000000E+00  0.000000000E+00  1.266190861E+01  1.266190861E+01  0.000000000E+00  0.00000E+00  9.000E+00
       2    -1     0     0   501     0  0.000000000E+00  0.000000000E+00 -1.198348302E+01  1.198348302E+01  0.000000000E+00  0.00000E+00  9.000E+00
      23     2     1     2     0     0  5.467935707E+00  2.402505341E+00 -4.116383704E-01  1.857426387E+01  1.758304522E+01  0.00000E+00  9.000E+00
      11     1     3     3     0     0  1.070319800E+01 -1.916031777E+00 -3.049776186E+00  1.129295180E+01  5.109989065E-04  0.00000E+00  9.000E+00
     -11     1     3     3     0     0 -5.235262294E+00  4.318537118E+00  2.638137816E+00  7.281312075E+00  5.109989499E-04  0.00000E+00  9.000E+00
       2     1     1     2   511     0 -5.467935707E+00 -2.402505341E+00  1.090063963E+00  6.071127758E+00  4.007122930E-08  0.00000E+00  9.000E+00
</event>
<event>
      6  10011  1.00000E+00  1.15172E+01 -1.00000E+00  1.88869E-01
      21    -1     0     0   511   501  0.000000000E+00  0.000000000E+00  3.235432149E+00  3.235432149E+00  0.000000000E+00  0.00000E+00  9.000E+00
       2    -1     0     0   501     0  0.000000000E+00  0.000000000E+00 -6.211036448E+02  6.211036448E+02  0.000000000E+00  0.00000E+00  9.000E+00
      23     2     1     2     0     0 -1.151695192E+01  7.252341359E-02 -6.087513630E+02  6.096502244E+02  3.102464704E+01  0.00000E+00  9.000E+00
      11     1     3     3     0     0  9.566034142E-01 -1.333964168E+01 -3.476952034E+02  3.479523180E+02  5.109377389E-04  0.00000E+00  9.000E+00
     -11     1     3     3     0     0 -1.247355534E+01  1.341216509E+01 -2.610561596E+02  2.616979064E+02  5.109957263E-04  0.00000E+00  9.000E+00
       2     1     1     2   511     0  1.151695192E+01 -7.252341359E-02 -9.116849636E+00  1.468885253E+01  3.622353982E-07  0.00000E+00  9.000E+00
</event>
<event>
      6  10011  1.00000E+00  6.10540E+01 -1.00000E+00  1.34274E-01
       2    -1     0     0   501     0  0.000000000E+00  0.000000000E+00  2.356460468E+01  2.356460468E+01  0.000000000E+00  0.00000E+00  9.000E+00
      21    -1     0     0   511   501  0.000000000E+00  0.000000000E+00 -2.505518275E+02  2.505518275E+02  0.000000000E+00  0.00000E+00  9.000E+00
      23     2     1     2     0     0 -2.500051583E+01  5.570062010E+01 -3.860238052E+01  7.608503648E+01  2.389987707E+01  0.00000E+00  9.000E+00
      11     1     3     3     0     0  1.617754470E-01  3.128163108E+00 -1.129492661E+01  1.172121764E+01  5.109988719E-04  0.00000E+00  9.000E+00
     -11     1     3     3     0     0 -2.516229128E+01  5.257245699E+01 -2.730745391E+01  6.436381884E+01  5.109998582E-04  0.00000E+00  9.000E+00
       2     1     1     2   511     0  2.500051583E+01 -5.570062010E+01 -1.883848423E+02  1.980313957E+02  1.563415176E-06  0.00000E+00  9.000E+00
</event>
<event>
      6  10011  1.00000E+00  9.87684E-01 -1.00000E+00  6.61216E-01
      -2    -1     0     0     0   511  0.000000000E+00  0.000000000E+00  2.495421308E+00  2.495421308E+00  0.000000000E+00  0.00000E+00  9.000E+00
       2    -1     0     0   501     0  0.000000000E+00  0.000000000E+00 -8.570967839E+02  8.570967839E+02  0.000000000E+00  0.00000E+00  9.000E+00
      23     2     1     2     0     0  9.341439881E-01  3.207716444E-01 -8.477590742E+02  8.526789983E+02  9.146065121E+01  0.00000E+00  9.000E+00
      11     1     3     3     0     0 -3.293387762E+01 -6.042595809E+00 -7.059226724E+02  7.067163311E+02  5.111783297E-04  0.00000E+00  9.000E+00
     -11     1     3     3     0     0  3.386802161E+01  6.363367453E+00 -1.418364018E+02  1.459626672E+02  5.110136896E-04  0.00000E+00  9.000E+00
      21     1     1     2   501   511 -9.341439881E-01 -3.207716444E-01 -6.842288387E+00  6.913206912E+00  7.385100276E-08  0.00000E+00  9.000E+00
</event>
<event>
      6  10011  1.00000E+00  3.02803E+00 -1.00000E+00  2.95510E-01
      -1    -1     0     0     0   501  0.000000000E+00  0.000000000E+00  9.372590281E+01  9.372590281E+01  0.000000000E+00  0.00000E+00  9.000E+00
      21    -1     0     0   501   511  0.000000000E+00  0.000000000E+00 -1.655898428E+01  1.655898428E+01  0.000000000E+00  0.00000E+00  9.000E+00
      23     2     1     2     0     0 -3.332175844E-01  3.009638157E+00  9.138162053E+01  9.575124649E+01  2.843469146E+01  0.00000E+00  9.000E+00
      11     1     3     3     0     0 -2.216725723E+00 -1.077865156E+01  1.827870001E+01  2.133551210E+01  5.109989796E-04  0.00000E+00  9.000E+00
     -11     1     3     3     0     0  1.883508139E+00  1.378828971E+01  7.310292053E+01  7.441573440E+01  5.109972932E-04  0.00000E+00  9.000E+00
      -1     1     1     2     0   511  3.332175844E-01 -3.009638157E+00 -1.421470200E+01  1.453364059E+01  4.833842295E-07  0.00000E+00  9.000E+00
</event>
<event>
      6  10011  1.00000E+00  1.26858E+00 -1.00000E+00  5.10331E-01
      -2    -1     0     0     0   511  0.000000000E+00  0.000000000E+00  3.218261885E-01  3.218261885E-01  0.000000000E+00  0.00000E+00  9.000E+00
       2    -1     0     0   501     0  0.000000000E+00  0.000000000E+00 -5.686818176E+02  5.686818176E+02  0.000000000E+00  0.00000E+00  9.000E+00
      23     2     1     2     0     0 -1.268478382E+00 -1.571584398E-02 -5.614007837E+02  5.619297583E+02  2.434345913E+01  0.00000E+00  9.000E+00
      11     1     3     3     0     0 -3.837959382E+00  7.908716941E+00 -8.446440863E+01  8.492063389E+01  5.109931165E-04  0.00000E+00  9.000E+00
     -11     1     3     3     0     0  2.569481001E+00 -7.924432785E+00 -4.769363751E+02  4.770091244E+02  5.110167990E-04  0.00000E+00  9.000E+00
      21     1     1     2   501   511  1.268478382E+00  1.571584398E-02 -6.959207670E+00  7.073885480E+00  2.213101503E-07  0.00000E+00  9.000E+00
</event>
<event>
      6  10011  1.00000E+00  6.11375E+00 -1.00000E+00  2.24135E-01
      -2    -1     0     0     0   501  0.000000000E+00  0.000000000E+00  5.120244353E+00  5.120244353E+00  0.000000000E+00  0.00000E+00  9.000E+00
       2    -1     0     0   511     0  0.000000000E+00  0.000000000E+00 -1.145232331E+02  1.145232331E+02  0.000000000E+00  0.00000E+00  9.000E+00
      23     2     1     2     0     0  6.066803611E+00 -7.561627827E-01 -3.777977376E+01  4.775980188E+01  2.857113023E+01  0.00000E+00  9.000E+00
      11     1     3     3     0     0  1.684820060E+01 -3.132875703E+00 -2.886861522E+01  3.357191860E+01  5.109994035E-04  0.00000E+00  9.000E+00
     -11     1     3     3     0     0 -1.078139699E+01  2.376712920E+00 -8.911158544E+00  1.418788329E+01  5.109990524E-04  0.00000E+00  9.000E+00
      21     1     1     2   511   501 -6.066803611E+00  7.561627827E-01 -7.162321494E+01  7.188367552E+01  5.101335874E-07  0.00000E+00  9.000E+00
</event>
<event>
      6  10011  1.00000E+00  1.08723E+01 -1.00000E+00  1.91594E-01
      21    -1     0     0   511   501  0.000000000E+00  0.000000000E+00  2.393563617E+01  2.393563617E+01  0.000000000E+00  0.00000E+00  9.000E+00
       1    -1     0     0   501     0  0.000000000E+00  0.000000000E+00 -1.097962992E+02  1.097962992E+02  0.000000000E+00  0.00000E+00  9.000E+00
      23     2     1     2     0     0  6.412352199E+00  8.779991366E+00 -8.491820105E+01  1.228188815E+02  8.806344463E+01  0.00000E+00  9.000E+00
      11     1     3     3     0     0  2.132088130E+00 -3.862996290E+01 -2.407978777E+01  4.557034137E+01  5.109986231E-04  0.00000E+00  9.000E+00
     -11     1     3     3     0     0  4.280264069E+00  4.740995427E+01 -6.083841328E+01  7.724854015E+01  5.109969022E-04  0.00000E+00  9.000E+00
       1     1     1     2   511     0 -6.412352199E+00 -8.779991366E+00 -9.424619589E-01  1.091305382E+01  1.464336316E-07  0.00000E+00  9.000E+00
</event>
<event>
      6  10011  1.00000E+00  7.92585E+00 -1.00000E+00  2.08134E-01
      21    -1     0     0   501   511  0.000000000E+00  0.000000000E+00  6.868282407E+01  6.868282407E+01  0.000000000E+00  0.00000E+00  9.000E+00
      -2    -1     0     0     0   501  0.000000000E+00  0.000000000E+00 -3.342454887E+00  3.342454887E+00  0.000000000E+00  0.00000E+00  9.000E+00
      23     2     1     2     0     0  7.479275116E+00 -2.622884942E+00  3.195417082E+01  3.771118094E+01  1.839143967E+01  0.00000E+00  9.000E+00
      11     1     3     3     0     0 -5.095225423E+00  2.570558511E+00  5.312877303E+00  7.797163502E+00  5.109988925E-04  0.00000E+00  9.000E+00
     -11     1     3     3     0     0  1.257450054E+01 -5.193443453E+00  2.664129352E+01  2.991401744E+01  5.109986953E-04  0.00000E+00  9.000E+00
      -2     1     1     2     0   511 -7.479275116E+00  2.622884942E+00  3.338619836E+01  3.431409802E+01  4.743861371E-07  0.00000E+00  9.000E+00
</event>
<event>
      6  10011  1.00000E+00  2.24971E+01 -1.00000E+00  1.62221E-01
       1    -1     0     0   511     0  0.000000000E+00  0.000000000E+00  5.644151210E+02  5.644151210E+02  0.000000000E+00  0.00000E+00  9.000E+00
      -1    -1     0     0     0   501  0.000000000E+00  0.000000000E+00 -7.402529885E+00  7.402529885E+00  0.000000000E+00  0.00000E+00  9.000E+00
      23     2     1     2     0     0 -1.491980904E+01 -1.683800083E+01  3.244820347E+02  3.382013445E+02  9.265764707E+01  0.00000E+00  9.000E+00
      11     1     3     3     0     0 -2.671593138E+01 -3.074906311E+01  5.678705749E+01  6.988573367E+01  5.110001703E-04  0.00000E+00  9.000E+00
     -11     1     3     3     0     0  1.179612234E+01  1.391106228E+01  2.676949773E+02  2.683156108E+02  5.109970612E-04  0.00000E+00  9.000E+00
      21     1     1     2   511   501  1.491980904E+01  1.683800083E+01  2.325305564E+02  2.336163064E+02  3.675243857E-06  0.00000E+00  9.000E+00
</event>
<event>
      6  10011  1.00000E+00  3.16717E+00 -1.00000E+00  2.89768E-01
      -2    -1     0     0     0   501  0.000000000E+00  0.000000000E+00  1.524289145E-01  1.524289145E-01  0.000000000E+00  0.00000E+00  9.000E+00
       2    -1     0     0   511     0  0.000000000E+00  0.000000000E+00 -1.490998043E+03  1.490998043E+03  0.000000000E+00  0.00000E+00  9.000E+00
      23     2     1     2     0     0 -2.961810333E+00 -1.121896832E+00 -1.240944068E+03  1.241228857E+03  2.639818249E+01  0.00000E+00  9.000E+00
      11     1     3     3     0     0  1.145312673E+01 -1.207630052E+00 -4.183342114E+02  4.184927059E+02  5.110158535E-04  0.00000E+00  9.000E+00
     -11     1     3     3     0     0 -1.441493707E+01  8.573321977E-02 -8.226098567E+02  8.227361510E+02  5.109187212E-04  0.00000E+00  9.000E+00
      21     1     1     2   511   501  2.961810333E+00  1.121896832E+00 -2.499015455E+02  2.499216145E+02  9.253129182E-07  0.00000E+00  9.000E+00
</event>
<event>
      6  10011  1.00000E+00  1.13360E+01 -1.00000E+00  1.89611E-01
      21    -1     0     0   501   511  0.000000000E+00  0.000000000E+00  3.928360409E+00  3.928360409E+00  0.000000000E+00  0.00000E+00  9.000E+00
      -2    -1     0     0     0   501  0.000000000E+00  0.000000000E+00 -1.596104428E+02  1.596104428E+02  0.000000000E+00  0.00000E+00  9.000E+00
      23     2     1     2     0     0  8.420299982E+00 -7.589744324E+00 -4.139749278E+01  4.869337189E+01  2.299535578E+01  0.00000E+00  9.000E+00
      11     1     3     3     0     0  6.512273369E+00 -7.003483260E+00 -2.690093125E+00  9.934539923E+00  5.109988561E-04  0.00000E+00  9.000E+00
     -11     1     3     3     0     0  1.908026613E+00 -5.862610643E-01 -3.870739965E+01  3.875883197E+01  5.109985709E-04  0.00000E+00  9.000E+00
      -2     1     1     2     0   511 -8.420299982E+00  7.589744324E+00 -1.142845896E+02  1.148454313E+02  1.086865814E-06  0.00000E+00  9.000E+00
</event>
<event>
      6  10011  1.00000E+00  2.83103E+01 -1.00000E+00  1.54773E-01
      21    -1     0     0   511   501  0.000000000E+00  0.000000000E+00  1.845922809E+00  1.845922809E+00  0.000000000E+00  0.00000E+00  9.000E+00
       2    -1     0     0   501     0  0.000000000E+00  0.000000000E+00 -1.703653992E+03  1.703653992E+03  0.000000000E+00  0.00000E+00  9.000E+00
      23     2     1     2     0     0 -8.894108056E+00 -2.687689640E+01 -1.577997094E+03  1.578493496E+03  2.766617240E+01  0.00000E+00  9.000E+00
      11     1     3     3     0     0 -4.568985163E+00  7.183322564E-01 -4.405640784E+01  4.429851802E+01  5.110070601E-04  0.00000E+00  9.000E+00
     -11     1     3     3     0     0 -4.325122893E+00 -2.759522865E+01 -1.533940686E+03  1.534194978E+03  5.100646642E-04  0.00000E+00  9.000E+00
       2     1     1     2   511     0  8.894108056E+00  2.687689640E+01 -1.238109757E+02  1.270064189E+02  2.645365337E-06  0.00000E+00  9.000E+00
</event>
<event>
      6  10011  1.00000E+00  9.82027E+01 -1.00000E+00  1.24160E-01
      -1    -1     0     0     0   501  0.000000000E+00  0.000000000E+00  4.032667527E+02  4.032667527E+02  0.000000000E+00  0.00000E+00  9.000E+00
      21    -1     0     0   501   511  0.000000000E+00  0.000000000E+00 -3.661774149E+01  3.661774149E+01  0.000000000E+00  0.00000E+00  9.000E+00
      23     2     1     2     0     0 -4.543997838E+01  8.705728163E+01  1.507832575E+02  2.027309879E+02  9.338362165E+01  0.00000E+00  9.000E+00
      11     1     3     3     0     0 -2.174895897E+01  6.073790680E+01  1.542031042E+02  1.671547424E+02  5.109973515E-04  0.00000E+00  9.000E+00
     -11     1     3     3     0     0 -2.369101941E+01  2.631937483E+01 -3.419846778E+00  3.557624550E+01  5.110000608E-04  0.00000E+00  9.000E+00
      -1     1     1     2     0   511  4.543997838E+01 -8.705728163E+01  2.158657537E+02  2.371535063E+02  2.440881160E-06  0.00000E+00  9.000E+00
</event>
<event>
      6  10011  1.00000E+00  3.71399E+00 -1.00000E+00  2.71185E-01
       2    -1     0     0   501     0  0.000000000E+00  0.000000000E+00  5.589636147E+00  5.589636147E+00  0.000000000E+00  0.00000E+00  9.000E+00
      -2    -1     0     0     0   511  0.000000000E+00  0.000000000E+00 -4.162227977E+02  4.162227977E+02  0.000000000E+00  0.00000E+00  9.000E+00
      23     2     1     2     0     0 -3.578165691E+00  9.952199539E-01 -3.781523369E+02  3.891199622E+02  9.165894034E+01  0.00000E+00  9.000E+00
      11     1     3     3     0     0 -3.844308370E+01  1.276679393E+00 -7.819766727E+01  8.714571568E+01  5.109971442E-04  0.00000E+00  9.000E+00
     -11     1     3     3     0     0  3.486491801E+01 -2.814594386E-01 -2.999546696E+02  3.019742465E+02  5.109539469E-04  0.00000E+00  9.000E+00
      21     1     1     2   501   511  3.578165691E+00 -9.952199539E-01 -3.248082470E+01  3.269247169E+01  3.960738736E-07  0.00000E+00  9.000E+00
</event>
<event>
      6  10011  1.00000E+00  3.89521E+01 -1.00000E+00  1.45527E-01
       2    -1     0     0   501     0  0.000000000E+00  0.000000000E+00  5.053048757E+02  5.053048757E+02  0.000000000E+00  0.00000E+00  9.000E+00
      21    -1     0     0   511   501  0.000000000E+00  0.000000000E+00 -1.129932796E+01  1.129932796E+01  0.000000000E+00  0.00000E+00  9.000E+00
      23     2     1     2     0     0 -3.242343714E+01 -2.158663909E+01  2.384185482E+02  2.580660506E+02  9.076023400E+01  0.00000E+00  9.000E+00
      11     1     3     3     0     0 -6.296654974E+00  1.690561729E+01  1.902371511E+02  1.910906105E+02  5.109963833E-04  0.00000E+00  9.000E+00
     -11     1     3     3     0     0 -2.612678216E+01 -3.849225638E+01  4.818139706E+01  6.697544005E+01  5.109979001E-04  0.00000E+00  9.000E+00
       2     1     1     2   511     0  3.242343714E+01  2.158663909E+01  2.555869995E+02  2.585381530E+02  4.301457060E-06  0.00000E+00  9.000E+00
</event>
<event>
      6  10011  1.00000E+00  1.04447E+00 -1.00000E+00  6.19695E-01
      -2    -1     0     0     0   501  0.000000000E+00  0.000000000E+00  1.000526344E-01  1.000526344E-01  0.000000000E+00  0.00000E+00  9.000E+00
       2    -1     0     0   511     0  0.000000000E+00  0.000000000E+00 -9.311421255E+02  9.311421255E+02  0.000000000E+00  0.00000E+00  9.000E+00
      23     2     1     2     0     0 -6.543895388E-01 -8.140598074E-01 -8.800251556E+02  8.802145702E+02  1.822976341E+01  0.00000E+00  9.000E+00
      11     1     3     3     0     0 -1.670152913E+00  6.643500053E+00 -6.983290605E+02  6.983626581E+02  5.107824685E-04  0.00000E+00  9.000E+00
     -11     1     3     3     0     0  1.015763374E+00 -7.457559860E+00 -1.816960951E+02  1.818519121E+02  5.109768638E-04  0.00000E+00  9.000E+00
      21     1     1     2   511   501  6.543895388E-01  8.140598074E-01 -5.101691726E+01  5.102760788E+01  4.487699373E-07  0.00000E+00  9.000E+00
</event>
<event>
      6  10011  1.00000E+00  7.83767E+00 -1.00000E+00  2.08775E-01
      21    -1     0     0   511   501  0.000000000E+00  0.000000000E+00  1.854235173E+00  1.854235173E+00  0.000000000E+00  0.00000E+00  9.000E+00
       2    -1     0     0   501     0  0.000000000E+00  0.000000000E+00 -1.450946718E+02  1.450946718E+02  0.000000000E+00  0.00000E+00  9.000E+00
      23     2     1     2     0     0  7.478764127E+00 -2.344615183E+00 -1.310482106E+02  1.324547872E+02  1.758431148E+01  0.00000E+00  9.000E+00
      11     1     3     3     0     0 -5.700144227E+00  6.093987179E-01 -4.134573374E+01  4.174125908E+01  5.109988564E-04  0.00000E+00  9.000E+00
     -11     1     3     3     0     0  1.317890835E+01 -2.954013900E+00 -8.970247685E+01  9.071352808E+01  5.110006083E-04  0.00000E+00  9.000E+00
       2     1     1     2   511     0 -7.478764127E+00  2.344615183E+00 -1.219222601E+01  1.449411978E+01  2.460102287E-07  0.00000E+00  9.000E+00
</event>
<event>
      6  10011  1.00000E+00  1.28511E+01 -1.00000E+00  1.83901E-01
      21    -1     0     0   511   501  0.000000000E+00  0.000000000E+00  1.423815450E+01  1.423815450E+01  0.000000000E+00  0.00000E+00  9.000E+00
       1    -1     0     0   501     0  0.000000000E+00  0.000000000E+00 -3.812456769E+02  3.812456769E+02  0.000000000E+00  0.00000E+00  9.000E+00
      23     2     1     2     0     0  8.590237617E+00 -9.558229913E+00 -3.703808418E+02  3.821973260E+02  9.342203226E+01  0.00000E+00  9.000E+00
      11     1     3     3     0     0  2.983427487E+01 -3.993038420E+01 -1.348368021E+02  1.437549399E+02  5.109946487E-04  0.00000E+00  9.000E+00
     -11     1     3     3     0     0 -2.124403725E+01  3.037215429E+01 -2.355440397E+02  2.384423861E+02  5.109802567E-04  0.00000E+00  9.000E+00
       1     1     1     2   511     0 -8.590237617E+00  9.558229913E+00  3.373319391E+00  1.328650538E+01  3.485113106E-07  0.00000E+00  9.000E+00
</event>
<event>
      6  10011  1.00000E+00  4.53137E+00 -1.00000E+00  2.51229E-01
      -2    -1     0     0     0   511  0.000000000E+00  0.000000000E+00  3.878960508E-01  3.878960508E-01  0.000000000E+00  0.00000E+00  9.000E+00
       2    -1     0     0   501     0  0.000000000E+00  0.000000000E+00 -4.443792461E+02  4.443792461E+02  0.000000000E+00  0.00000E+00  9.000E+00
      23     2     1     2     0     0 -3.741273574E+00  2.556590380E+00 -4.171413685E+02  4.175374746E+02  1.760932002E+01  0.00000E+00  9.000E+00
      11     1     3     3     0     0  4.861219767E+00  6.174643278E+00 -1.247971104E+02  1.250442979E+02  5.109923509E-04  0.00000E+00  9.000E+00
     -11     1     3     3     0     0 -8.602493342E+00 -3.618052898E+00 -2.923442581E+02  2.924931767E+02  5.110260385E-04  0.00000E+00  9.000E+00
      21     1     1     2   501   511  3.741273574E+00 -2.556590380E+00 -2.684998159E+01  2.722966753E+01  6.741025767E-07  0.00000E+00  9.000E+00
</event>
<event>
      6  10011  1.00000E+00  1.19830E+01 -1.00000E+00  1.87040E-01
       2    -1     0     0   501     0  0.000000000E+00  0.000000000E+00  4.243376316E+02  4.243376316E+02  0.000000000E+00  0.00000E+00  9.000E+00
      21    -1     0     0   511   501  0.000000000E+00  0.000000000E+00 -8.803223862E-01  8.803223862E-01  0.000000000E+00  0.00000E+00  9.000E+00
      23     2     1     2     0     0  9.161089989E+00  7.724403508E+00  3.243633240E+02  3.254020740E+02  2.305107088E+01  0.00000E+00  9.000E+00
      11     1     3     3     0     0  1.216776694E+01  1.068019158E+01  1.315331356E+02  1.325257968E+02  5.109984708E-04  0.00000E+00  9.000E+00
     -11     1     3     3     0     0 -3.006676955E+00 -2.955788074E+00  1.928301884E+02  1.928762773E+02  5.110006800E-04  0.00000E+00  9.000E+00
       2     1     1     2   511     0 -9.161089989E+00 -7.724403508E+00  9.909398526E+01  9.981587997E+01  7.760057787E-07  0.00000E+00  9.000E+00
</event>
<event>
      6  10011  1.00000E+00  4.31117E+00 -1.00000E+00  2.55930E-01
      21    -1     0     0   501   511  0.000000000E+00  0.000000000E+00  8.543654173E+01  8.543654173E+01  0.000000000E+00  0.00000E+00  9.000E+00
      -2    -1     0     0     0   501  0.000000000E+00  0.000000000E+00 -8.719738484E+01  8.719738484E+01  0.000000000E+00  0.00000E+00  9.000E+00
      23     2     1     2     0     0  3.464666443E+00 -2.565600166E+00 -6.643853514E+01  1.078127104E+02  8.479926508E+01  0.00000E+00  9.000E+00
      11     1     3     3     0     0 -9.316867792E+00  1.085349940E+00 -8.470432477E+01  8.522209012E+01  5.109987029E-04  0.00000E+00  9.000E+00
     -11     1     3     3     0     0  1.278153424E+01 -3.650950106E+00  1.826578963E+01  2.259062029E+01  5.109996184E-04  0.00000E+00  9.000E+00
      -2     1     1     2     0   511 -3.464666443E+00  2.565600166E+00  6.467769203E+01  6.482121615E+01  7.275674114E-07  0.00000E+00  9.000E+00
</event>
<event>
      6  10011  1.00000E+00  1.80017E+00 -1.00000E+00  3.85598E-01
       2    -1     0     0   501     0  0.000000000E+00  0.000000000E+00  8.187869513E+02  8.187869513E+02  0.000000000E+00  0.00000E+00  9.000E+00
      21    -1     0     0   511   501  0.000000000E+00  0.000000000E+00 -1.283458778E+00  1.283458778E+00  0.000000000E+00  0.00000E+00  9.000E+00
      23     2     1     2     0     0 -1.388456841E+00 -1.145780753E+00  8.178111693E+02  8.182441322E+02  2.655391723E+01  0.00000E+00  9.000E+00
      11     1     3     3     0     0  3.300570743E+00  1.206736075E+01  3.533957132E+02  3.536170882E+02  5.109120249E-04  0.00000E+00  9.000E+00
     -11     1     3     3     0     0 -4.689027584E+00 -1.321314151E+01  4.644154561E+02  4.646270439E+02  5.109100014E-04  0.00000E+00  9.000E+00
       2     1     1     2   511     0  1.388456841E+00  1.145780753E+00 -3.076768201E-01  1.826277897E+00  1.847972690E-07  0.00000E+00  9.000E+00
</event>
<event>
      6  10011  1.00000E+00  3.07116E+00 -1.00000E+00  2.93676E-01
      21    -1     0     0   501   511  0.000000000E+00  0.000000000E+00  9.935179016E+01  9.935179016E+01  0.000000000E+00  0.00000E+00  9.000E+00
      -2    -1     0     0     0   501  0.000000000E+00  0.000000000E+00 -1.214671001E+00  1.214671001E+00  0.000000000E+00  0.00000E+00  9.000E+00
      23     2     1     2     0     0  1.960692554E+00  2.363831107E+00  5.919548414E+01  6.150390939E+01  1.640711781E+01  0.00000E+00  9.000E+00
      11     1     3     3     0     0  7.827987068E+00  5.881063886E+00  3.224006965E+01  3.369401112E+01  5.109985640E-04  0.00000E+00  9.000E+00
     -11     1     3     3     0     0 -5.867294513E+00 -3.517232778E+00  2.695541449E+01  2.780989827E+01  5.109986928E-04  0.00000E+00  9.000E+00
      -2     1     1     2     0   511 -1.960692554E+00 -2.363831107E+00  3.894163502E+01  3.906255177E+01  3.640887655E-07  0.00000E+00  9.000E+00
</event>
<event>
      6  10011  1.00000E+00  2.33933E+00 -1.00000E+00  3.33853E-01
       1    -1     0     0   501     0  0.000000000E+00  0.000000000E+00  3.351811786E+00  3.351811786E+00  0.000000000E+00  0.00000E+00  9.000E+00
      21    -1     0     0   511   501  0.000000000E+00  0.000000000E+00 -7.227112552E+01  7.227112552E+01  0.000000000E+00  0.00000E+00  9.000E+00
      23     2     1     2     0     0 -8.613699115E-01  2.174975084E+00 -1.828078924E+01  2.493040691E+01  1.678884924E+01  0.00000E+00  9.000E+00
      11     1     3     3     0     0  6.908595000E+00  4.553040006E+00 -1.237087352E+01  1.488278771E+01  5.109988673E-04  0.00000E+00  9.000E+00
     -11     1     3     3     0     0 -7.769964911E+00 -2.378064922E+00 -5.909915717E+00  1.004761920E+01  5.109988518E-04  0.00000E+00  9.000E+00
       1     1     1     2   511     0  8.613699115E-01 -2.174975084E+00 -5.063852450E+01  5.069253040E+01  1.931411236E-07  0.00000E+00  9.000E+00
</event>
<event>
      6  10011  1.00000E+00  1.01618E+01 -1.00000E+00  1.94897E-01
       1    -1     0     0   511     0  0.000000000E+00  0.000000000E+00  3.053732034E+02  3.053732034E+02  0.000000000E+00  0.00000E+00  9.000E+00
      -1    -1     0     0     0   501  0.000000000E+00  0.000000000E+00 -9.002332446E+00  9.002332446E+00  0.000000000E+00  0.00000E+00  9.000E+00
      23     2     1     2     0     0 -1.464927578E-01  1.016074076E+01  2.624847667E+02  2.789985635E+02  9.401427315E+01  0.00000E+00  9.000E+00
      11     1     3     3     0     0 -3.204584656E+01 -2.955733577E+01  1.241975096E+02  1.316267214E+02  5.109983248E-04  0.00000E+00  9.000E+00
     -11     1     3     3     0     0  3.189935380E+01  3.971807653E+01  1.382872571E+02  1.473718421E+02  5.110032333E-04  0.00000E+00  9.000E+00
      21     1     1     2   511   501  1.464927578E-01 -1.016074076E+01  3.388610420E+01  3.537697232E+01  3.419159027E-07  0.00000E+00  9.000E+00
</event>
<event>
      6  10011  1.00000E+00  1.43831E+00 -1.00000E+00  4.59117E-01
      -1    -1     0     0     0   511  0.000000000E+00  0.000000000E+00  5.638155079E+00  5.638155079E+00  0.000000000E+00  0.00000E+00  9.000E+00
       1    -1     0     0   501     0  0.000000000E+00  0.000000000E+00 -4.353198828E+02  4.353198828E+02  0.000000000E+00  0.00000E+00  9.000E+00
      23     2     1     2     0     0 -1.437779268E+00 -3.896094561E-02 -4.295629766E+02  4.395148369E+02  9.298855997E+01  0.00000E+00  9.000E+00
      11     1     3     3     0     0  5.496902770E+00  4.377638459E+01 -2.819214948E+02  2.853529692E+02  5.109655097E-04  0.00000E+00  9.000E+00
     -11     1     3     3     0     0 -6.934682038E+00 -4.381534553E+01 -1.476414818E+02  1.541618677E+02  5.110099632E-04  0.00000E+00  9.000E+00
      21     1     1     2   501   511  1.437779268E+00  3.896094561E-02 -1.187511281E-01  1.443200960E+00  2.456478807E-08  0.00000E+00  9.000E+00
</event>
<event>
      6  10011  1.00000E+00  3.89164E+01 -1.00000E+00  1.45552E-01
      21    -1     0     0   501   511  0.000000000E+00  0.000000000E+00  2.512183298E+02  2.512183298E+02  0.000000000E+00  0.00000E+00  9.000E+00
      -1    -1     0     0     0   501  0.000000000E+00  0.000000000E+00 -1.872035062E+01  1.872035062E+01  0.000000000E+00  0.00000E+00  9.000E+00
      23     2     1     2     0     0 -3.836013081E+01 -6.556276085E+00  1.544460302E+02  1.827229070E+02  8.955222000E+01  0.00000E+00  9.000E+00
      11     1     3     3     0     0 -2.648610223E+00 -4.279446074E+01  9.658821748E+01  1.056771724E+02  5.109987142E-04  0.00000E+00  9.000E+00
     -11     1     3     3     0     0 -3.571152059E+01  3.623818466E+01  5.785781270E+01  7.704573461E+01  5.109989277E-04  0.00000E+00  9.000E+00
      -1     1     1     2     0   511  3.836013081E+01  6.556276085E+00  7.805194900E+01  8.721577343E+01  8.368564297E-07  0.00000E+00  9.000E+00
</event>
<event>
      6  10011  1.00000E+00  4.89542E+00 -1.00000E+00  2.44285E-01
       1    -1     0     0   501     0  0.000000000E+00  0.000000000E+00  1.406616980E+03  1.406616980E+03  0.000000000E+00  0.00000E+00  9.000E+00
      21    -1     0     0   511   501  0.000000000E+00  0.000000000E+00 -2.964474349E-01  2.964474349E-01  0.000000000E+00  0.00000E+00  9.000E+00
      23     2     1     2     0     0 -4.866544173E+00  5.309045388E-01  1.363701387E+03  1.364014048E+03  2.879040699E+01  0.00000E+00  9.000E+00
      11     1     3     3     0     0 -1.565833619E+01  1.349632643E+00  5.050970533E+02  5.053415066E+02  5.108939937E-04  0.00000E+00  9.000E+00
     -11     1     3     3     0     0  1.079179202E+01 -8.187281038E-01  8.586043332E+02  8.586725418E+02  5.106888120E-04  0.00000E+00  9.000E+00
       1     1     1     2   511     0  4.866544173E+00 -5.309045388E-01  4.261914638E+01  4.289937937E+01  1.151687218E-06  0.00000E+00  9.000E+00
</event>
<event>
      6  10011  1.00000E+00  2.00191E+01 -1.00000E+00  1.66293E-01
       2    -1     0     0   501     0  0.000000000E+00  0.000000000E+00  1.105169947E+03  1.105169947E+03  0.000000000E+00  0.00000E+00  9.000E+00
      21    -1     0     0   511   501  0.000000000E+00  0.000000000E+00 -1.539223672E+01  1.539223672E+01  0.000000000E+00  0.00000E+00  9.000E+00
      23     2     1     2     0     0 -6.592484569E+00  1.890246211E+01  1.095042860E+03  1.099862287E+03  1.008832137E+02  0.00000E+00  9.000E+00
      11     1     3     3     0     0 -3.858432335E+01  4.365105428E+01  7.907139061E+02  7.928572670E+02  5.109206126E-04  0.00000E+00  9.000E+00
     -11     1     3     3     0     0  3.199183878E+01 -2.474859217E+01  3.043289537E+02  3.070050205E+02  5.109291306E-04  0.00000E+00  9.000E+00
       2     1     1     2   511     0  6.592484569E+00 -1.890246211E+01 -5.265149072E+00  2.069989665E+01  1.150916515E-06  0.00000E+00  9.000E+00
</event>
<event>
      6  10011  1.00000E+00  9.03166E+00 -1.00000E+00  2.00952E-01
      -3    -1     0     0     0   501  0.000000000E+00  0.000000000E+00  1.491125669E+02  1.491125669E+02  0.000000000E+00  0.00000E+00  9.000E+00
       3    -1     0     0   511     0  0.000000000E+00  0.000000000E+00 -1.904651486E+01  1.904651486E+01  0.000000000E+00  0.00000E+00  9.000E+00
      23     2     1     2     0     0 -3.430474483E+00 -8.354801705E+00  1.304601379E+02  1.591188290E+02  9.064978374E+01  0.00000E+00  9.000E+00
      11     1     3     3     0     0 -3.664915043E+00 -1.433323475E+01  1.437683571E+02  1.445275535E+02  5.109849985E-04  0.00000E+00  9.000E+00
     -11     1     3     3     0     0  2.344405607E-01  5.978433048E+00 -1.330821916E+01  1.459127552E+01  5.109981245E-04  0.00000E+00  9.000E+00
      21     1     1     2   511   501  3.430474483E+00  8.354801705E+00 -3.940858426E-01  9.040252782E+00  4.612339203E-08  0.00000E+00  9.000E+00
</event>
<event>
      6  10011  1.00000E+00  5.88161E+00 -1.00000E+00  2.26745E-01
       1    -1     0     0   501     0  0.000000000E+00  0.000000000E+00  1.203217357E+01  1.203217357E+01  0.000000000E+00  0.00000E+00  9.000E+00
      -1    -1     0     0     0   511  0.000000000E+00  0.000000000E+00 -1.722179295E+01  1.722179295E+01  0.000000000E+00  0.00000E+00  9.000E+00
      23     2     1     2     0     0 -1.698659685E+00  5.630980355E+00  3.881161766E+00  1.844321007E+01  1.704391964E+01  0.00000E+00  9.000E+00
      11     1     3     3     0     0  6.429326002E-01  1.117229062E+00 -6.636657388E+00  6.760679304E+00  5.109989310E-04  0.00000E+00  9.000E+00
     -11     1     3     3     0     0 -2.341592285E+00  4.513751293E+00  1.051781915E+01  1.168253077E+01  5.109988538E-04  0.00000E+00  9.000E+00
      21     1     1     2   501   511  1.698659685E+00 -5.630980355E+00 -9.070781138E+00  1.081075645E+01  1.211435537E-07  0.00000E+00  9.000E+00
</event>
<event>
      6  10011  1.00000E+00  4.74792E+00 -1.00000E+00  2.46985E-01
       2    -1     0     0   501     0  0.000000000E+00  0.000000000E+00  1.906157408E+01  1.906157408E+01  0.000000000E+00  0.00000E+00  9.000E+00
      21    -1     0     0   511   501  0.000000000E+00  0.000000000E+00 -8.039379407E+01  8.039379407E+01  0.000000000E+00  0.00000E+00  9.000E+00
      23     2     1     2     0     0 -4.562019338E+00 -1.315576976E+00  1.471730614E+01  2.325777509E+01  1.737188070E+01  0.00000E+00  9.000E+00
      11     1     3     3     0     0 -5.089272420E+00 -1.941636280E+00 -2.519501895E+00  6.001544407E+00  5.109989521E-04  0.00000E+00  9.000E+00
     -11     1     3     3     0     0  5.272530824E-01  6.260593042E-01  1.723680803E+01  1.725623069E+01  5.109990842E-04  0.00000E+00  9.000E+00
       2     1     1     2   511     0  4.562019338E+00  1.315576976E+00 -7.604952613E+01  7.619759306E+01  1.388769037E-06  0.00000E+00  9.000E+00
</event>
<event>
      6  10011  1.00000E+00  5.76431E+00 -1.00000E+00  2.28129E-01
       1    -1     0     0   501     0  0.000000000E+00  0.000000000E+00  3.215629604E+02  3.215629604E+02  0.000000000E+00  0.00000E+00  9.000E+00
      21    -1     0     0   511   501  0.000000000E+00  0.000000000E+00 -7.476269001E+00  7.476269001E+00  0.000000000E+00  0.00000E+00  9.000E+00
      23     2     1     2     0     0  4.217981176E-01 -5.748853831E+00  3.020071986E+02  3.156548587E+02  9.163195158E+01  0.00000E+00  9.000E+00
      11     1     3     3     0     0  2.537142457E+01  3.369526991E+01  1.835658915E+02  1.883494543E+02  5.110159543E-04  0.00000E+00  9.000E+00
     -11     1     3     3     0     0 -2.494962645E+01 -3.944412374E+01  1.184413071E+02  1.273054044E+02  5.110025424E-04  0.00000E+00  9.000E+00
       1     1     1     2   511     0 -4.217981176E-01  5.748853831E+00  1.207949277E+01  1.338437072E+01  2.553115143E-07  0.00000E+00  9.000E+00
</event>
<event>
      6  10011  1.00000E+00  7.81370E+00 -1.00000E+00  2.08951E-01
       3    -1     0     0   511     0  0.000000000E+00  0.000000000E+00  6.031491713E+01  6.031491713E+01  0.000000000E+00  0.00000E+00  9.000E+00
      -3    -1     0     0     0   501  0.000000000E+00  0.000000000E+00 -1.282128660E+01  1.282128660E+01  0.000000000E+00  0.00000E+00  9.000E+00
      23     2     1     2     0     0 -2.793776172E+00 -7.297169449E+00  3.376461218E+01  5.733937455E+01  4.568042218E+01  0.00000E+00  9.000E+00
      11     1     3     3     0     0  1.049124509E+00  1.729858879E+01  2.602978382E+01  3.127125649E+01  5.109988590E-04  0.00000E+00  9.000E+00
     -11     1     3     3     0     0 -3.842900682E+00 -2.459575824E+01  7.734828362E+00  2.606811806E+01  5.109990942E-04  0.00000E+00  9.000E+00
      21     1     1     2   511   501  2.793776172E+00  7.297169449E+00  1.372901835E+01  1.579682918E+01  1.553495188E-07  0.00000E+00  9.000E+00
</event>
<event>
      6  10011  1.00000E+00  2.98245E+00 -1.00000E+00  2.97503E-01
      21    -1     0     0   501   511  0.000000000E+00  0.000000000E+00  6.810446001E+00  6.810446001E+00  0.000000000E+00  0.00000E+00  9.000E+00
      -1    -1     0     0     0   501  0.000000000E+00  0.000000000E+00 -7.030799113E+01  7.030799113E+01  0.000000000E+00  0.00000E+00  9.000E+00
      23     2     1     2     0     0  2.909378574E+00 -6.561457426E-01 -6.840568813E+01  7.137519077E+01  2.015402386E+01  0.00000E+00  9.000E+00
      11     1     3     3     0     0 -8.466667482E-01  9.143649599E+00 -4.130298426E+01  4.231146041E+01  5.109983406E-04  0.00000E+00  9.000E+00
     -11     1     3     3     0     0  3.756045322E+00 -9.799795342E+00 -2.710270387E+01  2.906373036E+01  5.109989598E-04  0.00000E+00  9.000E+00
      -1     1     1     2     0   511 -2.909378574E+00  6.561457426E-01  4.908143009E+00  5.743246357E+00  1.625578134E-07  0.00000E+00  9.000E+00
</event>
<event>
      5  10011  1.00000E+00  8.94427E-01 -1.00000E+00  7.40722E-01
       2    -1     0     0   501     0  0.000000000E+00  0.000000000E+00  2.953340477E+02  2.953340477E+02  0.000000000E+00  0.00000E+00  9.000E+00
      -2    -1     0     0     0   501  0.000000000E+00  0.000000000E+00 -1.319565173E+01  1.319565173E+01  0.000000000E+00  0.00000E+00  9.000E+00
      23     2     1     2     0     0  0.000000000E+00  0.000000000E+00  2.821383959E+02  3.085296994E+02  1.248539184E+02  0.00000E+00  9.000E+00
      11     1     3     3     0     0  4.927894234E+01  9.250745587E+00  2.329716398E+02  2.383060541E+02  5.109919824E-04  0.00000E+00  9.000E+00
     -11     1     3     3     0     0 -4.927894234E+01 -9.250745587E+00  4.916675608E+01  7.022364527E+01  5.109981165E-04  0.00000E+00  9.000E+00
</event>
<event>
      6  10011  1.00000E+00  1.59897E+01 -1.00000E+00  1.74763E-01
       5    -1     0     0   511     0  0.000000000E+00  0.000000000E+00  6.443638680E+01  6.443638680E+01  0.000000000E+00  0.00000E+00  9.000E+00
      -5    -1     0     0     0   501  0.000000000E+00  0.000000000E+00 -7.066509195E+01  7.066509195E+01  0.000000000E+00  0.00000E+00  9.000E+00
      23     2     1     2     0     0 -1.343104945E+01 -8.676166081E+00 -4.473079912E+01  9.341118987E+01  8.043094588E+01  0.00000E+00  9.000E+00
      11     1     3     3     0     0  6.356517866E+00  3.349877294E+01 -2.726975887E+01  4.366019763E+01  5.109979228E-04  0.00000E+00  9.000E+00
     -11     1     3     3     0     0 -1.978756731E+01 -4.217493902E+01 -1.746104025E+01  4.975099224E+01  5.109978419E-04  0.00000E+00  9.000E+00
      21     1     1     2   511   501  1.343104945E+01  8.676166081E+00  3.850209396E+01  4.169028888E+01  6.531061828E-07  0.00000E+00  9.000E+00
</event>
<event>
      6  10011  1.00000E+00  8.73161E+00 -1.00000E+00  2.02760E-01
      -2    -1     0     0     0   501  0.000000000E+00  0.000000000E+00  1.277214740E+01  1.277214740E+01  0.000000000E+00  0.00000E+00  9.000E+00
       2    -1     0     0   511     0  0.000000000E+00  0.000000000E+00 -5.380310654E+02  5.380310654E+02  0.000000000E+00  0.00000E+00  9.000E+00
      23     2     1     2     0     0 -8.623542300E+00 -1.369483826E+00 -1.448003220E+02  1.702444338E+02  8.910551630E+01  0.00000E+00  9.000E+00
      11     1     3     3     0     0  6.660716326E+00  8.624483837E+00 -1.506693056E+02  1.510628562E+02  5.110022929E-04  0.00000E+00  9.000E+00
     -11     1     3     3     0     0 -1.528425863E+01 -9.993967664E+00  5.868983639E+00  1.918157764E+01  5.109980248E-04  0.00000E+00  9.000E+00
      21     1     1     2   511   501  8.623542300E+00  1.369483826E+00 -3.804585960E+02  3.805587789E+02  1.198038533E-06  0.00000E+00  9.000E+00
</event>
<event>
      6  10011  1.00000E+00  3.82121E+00 -1.00000E+00  2.68126E-01
      21    -1     0     0   511   501  0.000000000E+00  0.000000000E+00  9.424617856E+00  9.424617856E+00  0.000000000E+00  0.00000E+00  9.000E+00
       1    -1     0     0   501     0  0.000000000E+00  0.000000000E+00 -1.855331037E+02  1.855331037E+02  0.000000000E+00  0.00000E+00  9.000E+00
      23     2     1     2     0     0 -1.275040835E+00 -3.602214776E+00 -1.844156340E+02  1.858138498E+02  2.242897687E+01  0.00000E+00  9.000E+00
      11     1     3     3     0     0  8.808170120E+00 -1.405544039E+00 -3.790900121E+01  3.894421379E+01  5.110002481E-04  0.00000E+00  9.000E+00
     -11     1     3     3     0     0 -1.008321095E+01 -2.196670736E+00 -1.465066328E+02  1.468696360E+02  5.109990879E-04  0.00000E+00  9.000E+00
       1     1     1     2   511     0  1.275040835E+00  3.602214776E+00  8.307148193E+00  9.143871801E+00  2.183032829E-07  0.00000E+00  9.000E+00
</event>
<event>
      6  10011  1.00000E+00  1.80475E+01 -1.00000E+00  1.70093E-01
      -1    -1     0     0     0   511  0.000000000E+00  0.000000000E+00  2.268184669E+01  2.268184669E+01  0.000000000E+00  0.00000E+00  9.000E+00
       1    -1     0     0   501     0  0.000000000E+00  0.000000000E+00 -6.804600400E+02  6.804600400E+02  0.000000000E+00  0.00000E+00  9.000E+00
      23     2     1     2     0     0 -4.551707865E+00  1.746406118E+01 -6.730454939E+02  6.795028946E+02  9.169643081E+01  0.00000E+00  9.000E+00
      11     1     3     3     0     0  1.513367650E+01 -3.457840238E+01 -2.849746870E+02  2.874635043E+02  5.110290418E-04  0.00000E+00  9.000E+00
     -11     1     3     3     0     0 -1.968538436E+01  5.204246356E+01 -3.880708069E+02  3.920393903E+02  5.110300637E-04  0.00000E+00  9.000E+00
      21     1     1     2   501   511  4.551707865E+00 -1.746406118E+01  1.526730062E+01  2.363899206E+01  1.047515597E-06  0.00000E+00  9.000E+00
</event>
<event>
      6  10011  1.00000E+00  3.06305E+01 -1.00000E+00  1.52380E-01
       1    -1     0     0   501     0  0.000000000E+00  0.000000000E+00  1.081488146E+02  1.081488146E+02  0.000000000E+00  0.00000E+00  9.000E+00
      -1    -1     0     0     0   511  0.000000000E+00  0.000000000E+00 -4.997062747E+01  4.997062747E+01  0.000000000E+00  0.00000E+00  9.000E+00
      23     2     1     2     0     0  7.175083544E+00 -2.977823963E+01  7.664110577E+01  1.223548683E+02  9.032513112E+01  0.00000E+00  9.000E+00
      11     1     3     3     0     0  9.492752349E+00  2.313407047E+01 -4.549803969E+00  2.541649622E+01  5.109985823E-04  0.00000E+00  9.000E+00
     -11     1     3     3     0     0 -2.317668805E+00 -5.291231009E+01  8.119090974E+01  9.693837204E+01  5.109967123E-04  0.00000E+00  9.000E+00
      21     1     1     2   501   511 -7.175083544E+00  2.977823963E+01 -1.846291862E+01  3.576457385E+01  6.764249138E-07  0.00000E+00  9.000E+00
</event>
<event>
      6  10011  1.00000E+00  3.08042E+00 -1.00000E+00  2.93289E-01
      -2    -1     0     0     0   511  0.000000000E+00  0.000000000E+00  2.369225090E+01  2.369225090E+01  0.000000000E+00  0.00000E+00  9.000E+00
       2    -1     0     0   501     0  0.000000000E+00  0.000000000E+00 -1.008976575E+02  1.008976575E+02  0.000000000E+00  0.00000E+00  9.000E+00
      23     2     1     2     0     0 -2.381071340E+00 -1.954354630E+00 -7.604968588E+01  1.212998182E+02  9.444893955E+01  0.00000E+00  9.000E+00
      11     1     3     3     0     0  1.661815611E+01 -4.382795626E+01 -4.964075641E+01  6.827340302E+01  5.109988510E-04  0.00000E+00  9.000E+00
     -11     1     3     3     0     0 -1.899922744E+01  4.187360163E+01 -2.640892946E+01  5.302641523E+01  5.109990359E-04  0.00000E+00  9.000E+00
      21     1     1     2   501   511  2.381071340E+00  1.954354630E+00 -1.155720714E+00  3.290090138E+00  3.254469392E-08  0.00000E+00  9.000E+00
</event>
<event>
      6  10011  1.00000E+00  1.34314E+00 -1.00000E+00  4.85587E-01
       2    -1     0     0   501     0  0.000000000E+00  0.000000000E+00  1.641856435E+02  1.641856435E+02  0.000000000E+00  0.00000E+00  9.000E+00
      21    -1     0     0   511   501  0.000000000E+00  0.000000000E+00 -4.314713024E+00  4.314713024E+00  0.000000000E+00  0.00000E+00  9.000E+00
      23     2     1     2     0     0 -8.680399510E-02  1.340334597E+00  1.634970915E+02  1.646334358E+02  1.926305334E+01  0.00000E+00  9.000E+00
      11     1     3     3     0     0 -1.978393918E+00  2.289995111E+00  1.620296456E+02  1.620579038E+02  5.110093270E-04  0.00000E+00  9.000E+00
     -11     1     3     3     0     0  1.891589923E+00 -9.496605138E-01  1.467445893E+00  2.575532030E+00  5.109989889E-04  0.00000E+00  9.000E+00
       2     1     1     2   511     0  8.680399510E-02 -1.340334597E+00 -3.626161044E+00  3.866920698E+00  7.209784252E-08  0.00000E+00  9.000E+00
</event>
<event>
      6  10011  1.00000E+00  6.06885E+00 -1.00000E+00  2.24627E-01
       1    -1     0     0   501     0  0.000000000E+00  0.000000000E+00  1.963399143E+02  1.963399143E+02  0.000000000E+00  0.00000E+00  9.000E+00
      -1    -1     0     0     0   511  0.000000000E+00  0.000000000E+00 -1.880720440E+01  1.880720440E+01  0.000000000E+00  0.00000E+00  9.000E+00
      23     2     1     2     0     0  4.790833923E+00 -3.725433918E+00  1.764693968E+02  2.089858216E+02  1.117890633E+02  0.00000E+00  9.000E+00
      11     1     3     3     0     0  5.331910392E+01 -1.533794927E+01  1.276124260E+02  1.391513953E+02  5.110015264E-04  0.00000E+00  9.000E+00
     -11     1     3     3     0     0 -4.852827000E+01  1.161251535E+01  4.885697073E+01  6.983442626E+01  5.109976750E-04  0.00000E+00  9.000E+00
      21     1     1     2   501   511 -4.790833923E+00  3.725433918E+00  1.063313121E+00  6.161297132E+00  4.211596792E-08  0.00000E+00  9.000E+00
</event>
<event>
      6  10011  1.00000E+00  5.26377E+01 -1.00000E+00  1.37785E-01
      21    -1     0     0   511   501  0.000000000E+00  0.000000000E+00  2.040957509E+01  2.040957509E+01  0.000000000E+00  0.00000E+00  9.000E+00
       4    -1     0     0   501     0  0.000000000E+00  0.000000000E+00 -2.978183738E+02  2.978183738E+02  0.000000000E+00  0.00000E+00  9.000E+00
      23     2     1     2     0     0 -5.137906580E+01 -1.144219974E+01 -1.830678206E+02  2.101957663E+02  8.886900960E+01  0.00000E+00  9.000E+00
      11     1     3     3     0     0 -7.682577028E+01 -1.193000185E+01 -1.340507240E+02  1.549649010E+02  5.109926237E-04  0.00000E+00  9.000E+00
     -11     1     3     3     0     0  2.544670448E+01  4.878021157E-01 -4.901709659E+01  5.523086527E+01  5.110011584E-04  0.00000E+00  9.000E+00
       4     1     1     2   511     0  5.137906580E+01  1.144219974E+01 -9.434097809E+01  1.080321826E+02  1.221168116E-06  0.00000E+00  9.000E+00
</event>
<event>
      6  10011  1.00000E+00  6.99931E+01 -1.00000E+00  1.31197E-01
       2    -1     0     0   501     0  0.000000000E+00  0.000000000E+00  8.163020700E+01  8.163020700E+01  0.000000000E+00  0.00000E+00  9.000E+00
      -2    -1     0     0     0   511  0.000000000E+00  0.000000000E+00 -6.679055874E+01  6.679055874E+01  0.000000000E+00  0.00000E+00  9.000E+00
      23     2     1     2     0     0 -6.838532082E+01 -1.491560952E+01  1.260692384E+01  7.839211039E+01  3.297515629E+01  0.00000E+00  9.000E+00
      11     1     3     3     0     0 -5.105644078E+01  3.791076427E+00  1.325219189E+01  5.288433602E+01  5.109995268E-04  0.00000E+00  9.000E+00
     -11     1     3     3     0     0 -1.732888003E+01 -1.870668595E+01 -6.452680489E-01  2.550777437E+01  5.109991952E-04  0.00000E+00  9.000E+00
      21     1     1     2   501   511  6.838532082E+01  1.491560952E+01  2.232724413E+00  7.002865534E+01  7.209140600E-07  0.00000E+00  9.000E+00
</event>
<event>
      6  10011  1.00000E+00  2.04462E+00 -1.00000E+00  3.58450E-01
       2    -1     0     0   501     0  0.000000000E+00  0.000000000E+00  1.302796054E+00  1.302796054E+00  0.000000000E+00  0.00000E+00  9.000E+00
      -2    -1     0     0     0   511  0.000000000E+00  0.000000000E+00 -7.106604163E+01  7.106604163E+01  0.000000000E+00  0.00000E+00  9.000E+00
      23     2     1     2     0     0  2.033920290E+00 -2.088513278E-01 -5.417231125E+01  5.664440816E+01  1.642465279E+01  0.00000E+00  9.000E+00
      11     1     3     3     0     0 -7.036211046E+00 -1.694379844E+00 -2.048912788E+01  2.172978487E+01  5.109992852E-04  0.00000E+00  9.000E+00
     -11     1     3     3     0     0  9.070131336E+00  1.485528516E+00 -3.368318337E+01  3.491462329E+01  5.109994353E-04  0.00000E+00  9.000E+00
      21     1     1     2   501   511 -2.033920290E+00  2.088513278E-01 -1.559093433E+01  1.572442952E+01  9.071674691E-08  0.00000E+00  9.000E+00
</event>
<event>
      6  10011  1.00000E+00  5.49238E+01 -1.00000E+00  1.36760E-01
       2    -1     0     0   501     0  0.000000000E+00  0.000000000E+00  7.982278219E+02  7.982278219E+02  0.000000000E+00  0.00000E+00  9.000E+00
      21    -1     0     0   511   501  0.000000000E+00  0.000000000E+00 -8.108368183E+00  8.108368183E+00  0.000000000E+00  0.00000E+00  9.000E+00
      23     2     1     2     0     0  3.064905579E+01  4.557701584E+01  5.893944500E+02  5.982324753E+02  8.648495711E+01  0.00000E+00  9.000E+00
      11     1     3     3     0     0  5.966292145E+01  4.162971797E+01  4.437036714E+02  4.496283417E+02  5.109836774E-04  0.00000E+00  9.000E+00
     -11     1     3     3     0     0 -2.901386566E+01  3.947297865E+00  1.456907786E+02  1.486041337E+02  5.109879064E-04  0.00000E+00  9.000E+00
       2     1     1     2   511     0 -3.064905579E+01 -4.557701584E+01  2.007250037E+02  2.081037148E+02  3.550356057E-06  0.00000E+00  9.000E+00
</event>
<event>
      6  10011  1.00000E+00  1.67920E+00 -1.00000E+00  4.02398E-01
      -1    -1     0     0     0   511  0.000000000E+00  0.000000000E+00  1.773768970E+02  1.773768970E+02  0.000000000E+00  0.00000E+00  9.000E+00
       1    -1     0     0   501     0  0.000000000E+00  0.000000000E+00 -1.666246622E+00  1.666246622E+00  0.000000000E+00  0.00000E+00  9.000E+00
      23     2     1     2     0     0 -1.383589796E+00 -9.515120891E-01  1.165325410E+02  1.198412152E+02  2.791530153E+01  0.00000E+00  9.000E+00
      11     1     3     3     0     0  6.611131665E-01  1.096329282E+01  2.253029416E+01  2.506481628E+01  5.109985456E-04  0.00000E+00  9.000E+00
     -11     1     3     3     0     0 -2.044702962E+00 -1.191480491E+01  9.400224682E+01  9.477639893E+01  5.109961730E-04  0.00000E+00  9.000E+00
      21     1     1     2   501   511  1.383589796E+00  9.515120891E-01  5.917810942E+01  5.920192844E+01  1.712013080E-07  0.00000E+00  9.000E+00
</event>
<event>
      6  10011  1.00000E+00  4.75090E+01 -1.00000E+00  1.40324E-01
       2    -1     0     0   511     0  0.000000000E+00  0.000000000E+00  3.082489088E+02  3.082489088E+02  0.000000000E+00  0.00000E+00  9.000E+00
      -2    -1     0     0     0   501  0.000000000E+00  0.000000000E+00 -2.639113199E+01  2.639113199E+01  0.000000000E+00  0.00000E+00  9.000E+00
      23     2     1     2     0     0  4.750732964E+01 -3.926804445E-01  8.952719370E+01  1.365285728E+02  9.147585584E+01  0.00000E+00  9.000E+00
      11     1     3     3     0     0 -4.180264999E+00  3.191884327E+01  6.154729665E+01  6.945759063E+01  5.109983494E-04  0.00000E+00  9.000E+00
     -11     1     3     3     0     0  5.168759464E+01 -3.231152372E+01  2.797989705E+01  6.707098213E+01  5.109972071E-04  0.00000E+00  9.000E+00
      21     1     1     2   511   501 -4.750732964E+01  3.926804445E-01  1.923305831E+02  1.981114680E+02  9.848303581E-07  0.00000E+00  9.000E+00
</event>
<event>
      5  10011  1.00000E+00  8.94427E-01 -1.00000E+00  6.99390E-01
       2    -1     0     0   501     0  0.000000000E+00  0.000000000E+00  7.691138005E+01  7.691138005E+01  0.000000000E+00  0.00000E+00  9.000E+00
      -2    -1     0     0     0   501  0.000000000E+00  0.000000000E+00 -8.772771268E-01  8.772771268E-01  0.000000000E+00  0.00000E+00  9.000E+00
      23     2     1     2     0     0  0.000000000E+00  0.000000000E+00  7.603410293E+01  7.778865718E+01  1.642834070E+01  0.00000E+00  9.000E+00
      11     1     3     3     0     0  3.590661554E+00  4.793087110E+00  6.463703317E+01  6.491388597E+01  5.109990622E-04  0.00000E+00  9.000E+00
     -11     1     3     3     0     0 -3.590661554E+00 -4.793087110E+00  1.139706976E+01  1.287477122E+01  5.109987531E-04  0.00000E+00  9.000E+00
</event>
<event>
      6  10011  1.00000E+00  1.23506E+01 -1.00000E+00  1.85670E-01
      21    -1     0     0   511   501  0.000000000E+00  0.000000000E+00  1.423108129E+00  1.423108129E+00  0.000000000E+00  0.00000E+00  9.000E+00
       1    -1     0     0   501     0  0.000000000E+00  0.000000000E+00 -3.413373649E+02  3.413373649E+02  0.000000000E+00  0.00000E+00  9.000E+00
      23     2     1     2     0     0  1.199525312E+01 -2.941280109E+00 -2.890895678E+02  2.904566851E+02  2.529368423E+01  0.00000E+00  9.000E+00
      11     1     3     3     0     0  4.085952249E+00 -1.246747545E+01 -8.652384511E+01  8.751290604E+01  5.109906549E-04  0.00000E+00  9.000E+00
     -11     1     3     3     0     0  7.909300874E+00  9.526195336E+00 -2.025657227E+02  2.029437791E+02  5.109861561E-04  0.00000E+00  9.000E+00
       1     1     1     2   511     0 -1.199525312E+01  2.941280109E+00 -5.082468891E+01  5.230378791E+01  5.291486056E-07  0.00000E+00  9.000E+00
</event>
<event>
      6  10011  1.00000E+00  9.76270E+00 -1.00000E+00  1.96911E-01
       2    -1     0     0   501     0  0.000000000E+00  0.000000000E+00  6.030107277E+02  6.030107277E+02  0.000000000E+00  0.00000E+00  9.000E+00
      21    -1     0     0   511   501  0.000000000E+00  0.000000000E+00 -3.867377281E-01  3.867377281E-01  0.000000000E+00  0.00000E+00  9.000E+00
      23     2     1     2     0     0 -9.740004605E+00 -6.653163596E-01  4.489338475E+02  4.493975621E+02  1.792370063E+01  0.00000E+00  9.000E+00
      11     1     3     3     0     0 -1.256221227E+01  3.402384893E+00  2.045801972E+02  2.049937621E+02  5.109829439E-04  0.00000E+00  9.000E+00
     -11     1     3     3     0     0  2.822207660E+00 -4.067701253E+00  2.443536502E+02  2.444038000E+02  5.109786645E-04  0.00000E+00  9.000E+00
       2     1     1     2   511     0  9.740004605E+00  6.653163596E-01  1.536901425E+02  1.539999034E+02  2.008950656E-06  0.00000E+00  9.000E+00
</event>
<event>
      6  10011  1.00000E+00  1.48370E+00 -1.00000E+00  4.48097E-01
       2    -1     0     0   501     0  0.000000000E+00  0.000000000E+00  2.097825383E+02  2.097825383E+02  0.000000000E+00  0.00000E+00  9.000E+00
      21    -1     0     0   511   501  0.000000000E+00  0.000000000E+00 -5.334160051E-01  5.334160051E-01  0.000000000E+00  0.00000E+00  9.000E+00
      23     2     1     2     0     0  1.391973393E+00  5.135825479E-01  1.946097809E+02  1.956016186E+02  1.961695807E+01  0.00000E+00  9.000E+00
      11     1     3     3     0     0  1.007294591E+01 -2.676106708E+00  1.045673803E+02  1.050855024E+02  5.109946860E-04  0.00000E+00  9.000E+00
     -11     1     3     3     0     0 -8.680972517E+00  3.189689256E+00  9.004240054E+01  9.051611623E+01  5.109983279E-04  0.00000E+00  9.000E+00
       2     1     1     2   511     0 -1.391973393E+00 -5.135825479E-01  1.463934143E+01  1.471433568E+01  2.252799814E-07  0.00000E+00  9.000E+00
</event>
<event>
      6  10011  1.00000E+00  2.50791E+01 -1.00000E+00  1.58610E-01
      -1    -1     0     0     0   511  0.000000000E+00  0.000000000E+00  9.359615155E+01  9.359615155E+01  0.000000000E+00  0.00000E+00  9.000E+00
       1    -1     0     0   501     0  0.000000000E+00  0.000000000E+00 -8.010378601E+01  8.010378601E+01  0.000000000E+00  0.00000E+00  9.000E+00
      23     2     1     2     0     0 -1.054584559E+01  2.275401783E+01 -5.116879677E+01  1.043455859E+02  8.741164305E+01  0.00000E+00  9.000E+00
      11     1     3     3     0     0 -3.465584719E+01 -1.297721463E+01 -4.870747374E+01  6.117069431E+01  5.109986042E-04  0.00000E+00  9.000E+00
     -11     1     3     3     0     0  2.411000159E+01  3.573123246E+01 -2.461323033E+00  4.317489156E+01  5.109998141E-04  0.00000E+00  9.000E+00
      21     1     1     2   501   511  1.054584559E+01 -2.275401783E+01  6.466116232E+01  6.935435169E+01  5.583463310E-07  0.00000E+00  9.000E+00
</event>
<event>
      6  10011  1.00000E+00  6.44229E+00 -1.00000E+00  2.20704E-01
      21    -1     0     0   511   501  0.000000000E+00  0.000000000E+00  1.011700005E+01  1.011700005E+01  0.000000000E+00  0.00000E+00  9.000E+00
       2    -1     0     0   501     0  0.000000000E+00  0.000000000E+00 -1.654698217E+01  1.654698217E+01  0.000000000E+00  0.00000E+00  9.000E+00
      23     2     1     2     0     0 -6.044870329E+00  2.227709804E+00 -8.501977677E+00  1.989668484E+01  1.679557367E+01  0.00000E+00  9.000E+00
      11     1     3     3     0     0 -6.287626632E+00  3.307752339E+00 -1.324286566E+01  1.502827220E+01  5.109989452E-04  0.00000E+00  9.000E+00
     -11     1     3     3     0     0  2.427563035E-01 -1.080042535E+00  4.740887984E+00  4.868412640E+00  5.109989116E-04  0.00000E+00  9.000E+00
       2     1     1     2   511     0  6.044870329E+00 -2.227709804E+00  2.071995551E+00  6.767297380E+00  7.049195271E-08  0.00000E+00  9.000E+00
</event>
<event>
      6  10011  1.00000E+00  1.29961E+01 -1.00000E+00  1.83408E-01
       1    -1     0     0   511     0  0.000000000E+00  0.000000000E+00  7.915937104E+01  7.915937104E+01  0.000000000E+00  0.00000E+00  9.000E+00
      -1    -1     0     0     0   501  0.000000000E+00  0.000000000E+00 -2.995899507E+01  2.995899507E+01  0.000000000E+00  0.00000E+00  9.000E+00
      23     2     1     2     0     0  8.155629498E+00 -1.011852242E+01  5.806626378E+00  6.382028346E+01  6.221264247E+01  0.00000E+00  9.000E+00
      11     1     3     3     0     0 -1.645636413E+01 -2.738541111E+01 -3.994277070E+00  3.219824393E+01  5.109985887E-04  0.00000E+00  9.000E+00
     -11     1     3     3     0     0  2.461199363E+01  1.726688869E+01  9.800903449E+00  3.162203953E+01  5.109991378E-04  0.00000E+00  9.000E+00
      21     1     1     2   511   501 -8.155629498E+00  1.011852242E+01  4.339374959E+01  4.529808265E+01  4.953375500E-07  0.00000E+00  9.000E+00
</event>
<event>
      6  10011  1.00000E+00  2.26714E+00 -1.00000E+00  3.39251E-01
      -3    -1     0     0     0   501  0.000000000E+00  0.000000000E+00  1.068570658E+01  1.068570658E+01  0.000000000E+00  0.00000E+00  9.000E+00
       3    -1     0     0   511     0  0.000000000E+00  0.000000000E+00 -4.983134498E+02  4.983134498E+02  0.000000000E+00  0.00000E+00  9.000E+00
      23     2     1     2     0     0 -2.267015699E+00 -2.414389743E-02 -1.763514045E+02  1.977145615E+02  8.936492618E+01  0.00000E+00  9.000E+00
      11     1     3     3     0     0  1.320695031E+00 -3.495468982E+01 -1.494252122E+02  1.534648775E+02  5.110121705E-04  0.00000E+00  9.000E+00
     -11     1     3     3     0     0 -3.587710730E+00  3.493054592E+01 -2.692619227E+01  4.424968403E+01  5.109994765E-04  0.00000E+00  9.000E+00
      21     1     1     2   511   501  2.267015699E+00  2.414389743E-02 -3.112763388E+02  3.112845949E+02  1.272806913E-06  0.00000E+00  9.000E+00
</event>
<event>
      6  10011  1.00000E+00  3.23813E+01 -1.00000E+00  1.50737E-01
       2    -1     0     0   501     0  0.000000000E+00  0.000000000E+00  1.176130535E+02  1.176130535E+02  0.000000000E+00  0.00000E+00  9.000E+00
      21    -1     0     0   511   501  0.000000000E+00  0.000000000E+00 -3.562376424E+01  3.562376424E+01  0.000000000E+00  0.00000E+00  9.000E+00
      23     2     1     2     0     0  2.691657335E+01 -1.800133608E+01  5.788604002E+01  1.128695458E+02  9.132464459E+01  0.00000E+00  9.000E+00
      11     1     3     3     0     0  3.003827460E+01 -4.201565585E+01  1.688606635E+00  5.167653887E+01  5.109997138E-04  0.00000E+00  9.000E+00
     -11     1     3     3     0     0 -3.121701245E+00  2.401431977E+01  5.619743338E+01  6.119300689E+01  5.109994122E-04  0.00000E+00  9.000E+00
       2     1     1     2   511     0 -2.691657335E+01  1.800133608E+01  2.410324922E+01  4.036727195E+01  4.516059894E-07  0.00000E+00  9.000E+00
</event>
<event>
      6  10011  1.00000E+00  2.19107E+00 -1.00000E+00  3.45345E-01
       2    -1     0     0   501     0  0.000000000E+00  0.000000000E+00  2.393683209E+01  2.393683209E+01  0.000000000E+00  0.00000E+00  9.000E+00
      -2    -1     0     0     0   511  0.000000000E+00  0.000000000E+00 -7.698569771E+00  7.698569771E+00  0.000000000E+00  0.00000E+00  9.000E+00
      23     2     1     2     0     0  2.440688668E-01 -2.177434638E+00  1.709883773E+01  2.928138800E+01  2.366914955E+01  0.00000E+00  9.000E+00
      11     1     3     3     0     0 -4.347853280E+00  6.365898073E+00  1.795948035E+01  1.954408916E+01  5.109989677E-04  0.00000E+00  9.000E+00
     -11     1     3     3     0     0  4.591922147E+00 -8.543332711E+00 -8.606426185E-01  9.737298845E+00  5.109989622E-04  0.00000E+00  9.000E+00
      21     1     1     2   501   511 -2.440688668E-01  2.177434638E+00 -8.605754083E-01  2.354013859E+00  1.866715239E-08  0.00000E+00  9.000E+00
</event>
<event>
      6  10011  1.00000E+00  5.69451E+00 -1.00000E+00  2.28974E-01
      21    -1     0     0   511   501  0.000000000E+00  0.000000000E+00  2.307752098E+00  2.307752098E+00  0.000000000E+00  0.00000E+00  9.000E+00
       2    -1     0     0   501     0  0.000000000E+00  0.000000000E+00 -1.552068941E+03  1.552068941E+03  0.000000000E+00  0.00000E+00  9.000E+00
      23     2     1     2     0     0  4.618510085E+00  3.331191155E+00 -1.541781834E+03  1.544573756E+03  9.265223500E+01  0.00000E+00  9.000E+00
      11     1     3     3     0     0  2.004241295E+01  1.724355762E+01 -1.458536195E+03  1.458775813E+03  5.111509736E-04  0.00000E+00  9.000E+00
     -11     1     3     3     0     0 -1.542390286E+01 -1.391236647E+01 -8.324563841E+01  8.579794307E+01  5.110411378E-04  0.00000E+00  9.000E+00
       2     1     1     2   511     0 -4.618510085E+00 -3.331191155E+00 -7.979354669E+00  9.802936849E+00  4.943419520E-07  0.00000E+00  9.000E+00
</event>
<event>
      6  10011  1.00000E+00  1.18714E+01 -1.00000E+00  1.87468E-01
       2    -1     0     0   501     0  0.000000000E+00  0.000000000E+00  4.454262013E+02  4.454262013E+02  0.000000000E+00  0.00000E+00  9.000E+00
      -2    -1     0     0     0   511  0.000000000E+00  0.000000000E+00 -1.161966402E+01  1.161966402E+01  0.000000000E+00  0.00000E+00  9.000E+00
      23     2     1     2     0     0 -7.253192530E+00  9.397951349E+00  4.351348890E+02  4.451003720E+02  9.290338655E+01  0.00000E+00  9.000E+00
      11     1     3     3     0     0 -2.553692574E+00  3.595429075E+01  3.956250215E+02  3.972636278E+02  5.110229169E-04  0.00000E+00  9.000E+00
     -11     1     3     3     0     0 -4.699499955E+00 -2.655633940E+01  3.950986757E+01  4.783674422E+01  5.110024715E-04  0.00000E+00  9.000E+00
      21     1     1     2   501   511  7.253192530E+00 -9.397951349E+00 -1.328351753E+00  1.194549328E+01  2.568234929E-07  0.00000E+00  9.000E+00
</event>
<event>
      6  10011  1.00000E+00  4.98129E+00 -1.00000E+00  2.42777E-01
      -2    -1     0     0     0   501  0.000000000E+00  0.000000000E+00  2.560631546E+01  2.560631546E+01  0.000000000E+00  0.00000E+00  9.000E+00
       2    -1     0     0   511     0  0.000000000E+00  0.000000000E+00 -1.030096643E+02  1.030096643E+02  0.000000000E+00  0.00000E+00  9.000E+00
      23     2     1     2     0     0  8.275613308E-01 -4.912061293E+00 -5.323992728E+01  1.039444548E+02  8.913555193E+01  0.00000E+00  9.000E+00
      11     1     3     3     0     0 -9.241128410E+00  3.564884560E+01 -4.990157560E+01  6.201939934E+01  5.109994857E-04  0.00000E+00  9.000E+00
     -11     1     3     3     0     0  1.006868974E+01 -4.056090689E+01 -3.338351673E+00  4.192505543E+01  5.109986289E-04  0.00000E+00  9.000E+00
      21     1     1     2   511   501 -8.275613308E-01  4.912061293E+00 -2.416342157E+01  2.467152500E+01  2.705904811E-07  0.00000E+00  9.000E+00
</event>
<event>
      6  10011  1.00000E+00  3.59821E+01 -1.00000E+00  1.47718E-01
      21    -1     0     0   501   511  0.000000000E+00  0.000000000E+00  1.059880871E+01  1.059880871E+01  0.000000000E+00  0.00000E+00  9.000E+00
      -1    -1     0     0     0   501  0.000000000E+00  0.000000000E+00 -6.924908941E+02  6.924908941E+02  0.000000000E+00  0.00000E+00  9.000E+00
      23     2     1     2     0     0  3.148147310E+01  1.742485378E+01 -6.425170968E+02  6.497502390E+02  8.973541478E+01  0.00000E+00  9.000E+00
      11     1     3     3     0     0  4.654095453E+01 -2.115772028E+01 -2.585708523E+02  2.635765453E+02  5.110164166E-04  0.00000E+00  9.000E+00
     -11     1     3     3     0     0 -1.505948143E+01  3.858257406E+01 -3.839462445E+02  3.861736937E+02  5.109398597E-04  0.00000E+00  9.000E+00
      -1     1     1     2     0   511 -3.148147310E+01 -1.742485378E+01 -3.937498858E+01  5.333946385E+01  9.750871747E-07  0.00000E+00  9.000E+00
</event>
<event>
      6  10011  1.00000E+00  2.66820E+00 -1.00000E+00  3.13064E-01
       2    -1     0     0   501     0  0.000000000E+00  0.000000000E+00  1.513019655E+03  1.513019655E+03  0.000000000E+00  0.00000E+00  9.000E+00
      -2    -1     0     0     0   511  0.000000000E+00  0.000000000E+00 -7.363965617E-02  7.363965617E-02  0.000000000E+00  0.00000E+00  9.000E+00
      23     2     1     2     0     0 -1.358815771E+00 -2.296280713E+00  1.425987765E+03  1.426094119E+03  1.721077127E+01  0.00000E+00  9.000E+00
      11     1     3     3     0     0 -8.460059956E+00  3.294810519E-01  1.024430137E+03  1.024465122E+03  5.109995989E-04  0.00000E+00  9.000E+00
     -11     1     3     3     0     0  7.101244185E+00 -2.625761765E+00  4.015576285E+02  4.016289971E+02  5.110053972E-04  0.00000E+00  9.000E+00
      21     1     1     2   501   511  1.358815771E+00  2.296280713E+00  8.695825056E+01  8.699917600E+01  1.859841621E-06  0.00000E+00  9.000E+00
</event>
<event>
      6  10011  1.00000E+00  8.12391E+00 -1.00000E+00  2.06736E-01
      21    -1     0     0   511   501  0.000000000E+00  0.000000000E+00  2.687846013E+01  2.687846013E+01  0.000000000E+00  0.00000E+00  9.000E+00
       2    -1     0     0   501     0  0.000000000E+00  0.000000000E+00 -1.239066775E+02  1.239066775E+02  0.000000000E+00  0.00000E+00  9.000E+00
      23     2     1     2     0     0 -5.675308997E+00  5.812808017E+00 -1.017882332E+02  1.413694263E+02  9.776744030E+01  0.00000E+00  9.000E+00
      11     1     3     3     0     0 -1.587285830E+01 -8.195987465E+00 -1.169734946E+02  1.183297100E+02  5.109991791E-04  0.00000E+00  9.000E+00
     -11     1     3     3     0     0  1.019754930E+01  1.400879548E+01  1.518526132E+01  2.303971624E+01  5.109989603E-04  0.00000E+00  9.000E+00
       2     1     1     2   511     0  5.675308997E+00 -5.812808017E+00  4.760015884E+00  9.415711363E+00  3.953461587E-08  0.00000E+00  9.000E+00
</event>
<event>
      6  10011  1.00000E+00  2.33861E+01 -1.00000E+00  1.60914E-01
       1    -1     0     0   511     0  0.000000000E+00  0.000000000E+00  6.088023025E+02  6.088023025E+02  0.000000000E+00  0.00000E+00  9.000E+00
      -1    -1     0     0     0   501  0.000000000E+00  0.000000000E+00 -5.664416152E+00  5.664416152E+00  0.000000000E+00  0.00000E+00  9.000E+00
      23     2     1     2     0     0 -3.882536128E+00 -2.306159258E+01  4.464170475E+02  4.560106287E+02  9.005888061E+01  0.00000E+00  9.000E+00
      11     1     3     3     0     0  3.433113250E+01  8.097282672E+00  2.865437145E+02  2.887065863E+02  5.110152487E-04  0.00000E+00  9.000E+00
     -11     1     3     3     0     0 -3.821366863E+01 -3.115887525E+01  1.598733331E+02  1.673040424E+02  5.110068363E-04  0.00000E+00  9.000E+00
      21     1     1     2   511   501  3.882536128E+00  2.306159258E+01  1.567208388E+02  1.584560900E+02  1.000932194E-06  0.00000E+00  9.000E+00
</event>
<event>
      6  10011  1.00000E+00  1.34039E+01 -1.00000E+00  1.82064E-01
      -3    -1     0     0     0   501  0.000000000E+00  0.000000000E+00  3.287397632E+01  3.287397632E+01  0.000000000E+00  0.00000E+00  9.000E+00
      21    -1     0     0   501   511  0.000000000E+00  0.000000000E+00 -1.548888106E+02  1.548888106E+02  0.000000000E+00  0.00000E+00  9.000E+00
      23     2     1     2     0     0 -1.225135174E+01 -5.437713773E+00 -3.406718957E+01  9.879957788E+01  9.176665426E+01  0.00000E+00  9.000E+00
      11     1     3     3     0     0  7.299834470E+00 -3.185398414E+01 -5.195818802E+01  6.138091879E+01  5.109988015E-04  0.00000E+00  9.000E+00
     -11     1     3     3     0     0 -1.955118621E+01  2.641627037E+01  1.789099845E+01  3.741865909E+01  5.109980384E-04  0.00000E+00  9.000E+00
      -3     1     1     2     0   511  1.225135174E+01  5.437713773E+00 -8.794764473E+01  8.896320905E+01  1.337291011E-06  0.00000E+00  9.000E+00
</event>
<event>
      6  10011  1.00000E+00  1.11641E+00 -1.00000E+00  5.76932E-01
       2    -1     0     0   501     0  0.000000000E+00  0.000000000E+00  2.790068601E+02  2.790068601E+02  0.000000000E+00  0.00000E+00  9.000E+00
      -2    -1     0     0     0   511  0.000000000E+00  0.000000000E+00 -3.180506888E-01  3.180506888E-01  0.000000000E+00  0.00000E+00  9.000E+00
      23     2     1     2     0     0  1.100866686E+00 -1.856617913E-01  2.713034319E+02  2.718556284E+02  1.728248185E+01  0.00000E+00  9.000E+00
      11     1     3     3     0     0  8.742925141E+00  1.164759967E+00  1.044181072E+02  1.047899638E+02  5.109954300E-04  0.00000E+00  9.000E+00
     -11     1     3     3     0     0 -7.642058455E+00 -1.350421758E+00  1.668853246E+02  1.670656646E+02  5.110056058E-04  0.00000E+00  9.000E+00
      21     1     1     2   501   511 -1.100866686E+00  1.856617913E-01  7.385377602E+00  7.469282434E+00  1.466293380E-07  0.00000E+00  9.000E+00
</event>
<event>
      6  10011  1.00000E+00  3.67246E+00 -1.00000E+00  2.72414E-01
       1    -1     0     0   501     0  0.000000000E+00  0.000000000E+00  5.629231149E+01  5.629231149E+01  0.000000000E+00  0.00000E+00  9.000E+00
      21    -1     0     0   511   501  0.000000000E+00  0.000000000E+00 -8.702369022E+01  8.702369022E+01  0.000000000E+00  0.00000E+00  9.000E+00
      23     2     1     2     0     0 -3.672313830E+00 -3.241165739E-02  1.639164494E+01  9.605009118E+01  9.456979989E+01  0.00000E+00  9.000E+00
      11     1     3     3     0     0  1.738517681E+01 -3.549750172E+01 -1.695637923E+01  4.300971748E+01  5.109987648E-04  0.00000E+00  9.000E+00
     -11     1     3     3     0     0 -2.105749064E+01  3.546509007E+01  3.334802417E+01  5.304037369E+01  5.109992247E-04  0.00000E+00  9.000E+00
       1     1     1     2   511     0  3.672313830E+00  3.241165739E-02 -4.712302367E+01  4.726591054E+01  1.228781231E-07  0.00000E+00  9.000E+00
</event>
<event>
      5  10011  1.00000E+00  8.94427E-01 -1.00000E+00  7.13210E-01
       1    -1     0     0   501     0  0.000000000E+00  0.000000000E+00  4.754703650E+01  4.754703650E+01  0.000000000E+00  0.00000E+00  9.000E+00
      -1    -1     0     0     0   501  0.000000000E+00  0.000000000E+00 -1.517860816E+00  1.517860816E+00  0.000000000E+00  0.00000E+00  9.000E+00
      23     2     1     2     0     0  0.000000000E+00  0.000000000E+00  4.602917568E+01  4.906489732E+01  1.699056016E+01  0.00000E+00  9.000E+00
      11     1     3     3     0     0  4.817501517E+00  5.200543223E+00  3.653350750E+01  3.721493169E+01  5.109993568E-04  0.00000E+00  9.000E+00
     -11     1     3     3     0     0 -4.817501517E+00 -5.200543223E+00  9.495668187E+00  1.184996562E+01  5.109989962E-04  0.00000E+00  9.000E+00
</event>
<event>
      6  10011  1.00000E+00  3.66941E+00 -1.00000E+00  2.72505E-01
      21    -1     0     0   501   511  0.000000000E+00  0.000000000E+00  1.762374829E+01  1.762374829E+01  0.000000000E+00  0.00000E+00  9.000E+00
      -2    -1     0     0     0   501  0.000000000E+00  0.000000000E+00 -2.566935666E+01  2.566935666E+01  0.000000000E+00  0.00000E+00  9.000E+00
      23     2     1     2     0     0  3.447548664E+00 -1.256568227E+00 -7.365583051E+00  3.956121670E+01  3.869591060E+01  0.00000E+00  9.000E+00
      11     1     3     3     0     0 -2.742114241E+00 -1.918954293E+01 -6.927167650E+00  2.058502855E+01  5.109991097E-04  0.00000E+00  9.000E+00
     -11     1     3     3     0     0  6.189662905E+00  1.793297470E+01 -4.384154013E-01  1.897618815E+01  5.109989532E-04  0.00000E+00  9.000E+00
      -2     1     1     2     0   511 -3.447548664E+00  1.256568227E+00 -6.800253193E-01  3.731888254E+00  4.360278339E-08  0.00000E+00  9.000E+00
</event>
<event>
      6  10011  1.00000E+00  1.70005E+00 -1.00000E+00  3.99303E-01
       2    -1     0     0   511     0  0.000000000E+00  0.000000000E+00  1.765969769E+03  1.765969769E+03  0.000000000E+00  0.00000E+00  9.000E+00
      -2    -1     0     0     0   501  0.000000000E+00  0.000000000E+00 -6.542443847E-02  6.542443847E-02  0.000000000E+00  0.00000E+00  9.000E+00
      23     2     1     2     0     0  1.698417492E+00 -7.457146169E-02  1.528386937E+03  1.528511702E+03  1.945515820E+01  0.00000E+00  9.000E+00
      11     1     3     3     0     0  6.450837530E+00 -3.306735527E+00  1.372059671E+03  1.372078820E+03  5.120698272E-04  0.00000E+00  9.000E+00
     -11     1     3     3     0     0 -4.752420038E+00  3.232164065E+00  1.563272661E+02  1.564328818E+02  5.110063306E-04  0.00000E+00  9.000E+00
      21     1     1     2   511   501 -1.698417492E+00  7.457146169E-02  2.375174076E+02  2.375234917E+02  1.708897494E-06  0.00000E+00  9.000E+00
</event>
<event>
      6  10011  1.00000E+00  3.22135E+01 -1.00000E+00  1.50889E-01
      -4    -1     0     0     0   501  0.000000000E+00  0.000000000E+00  1.389628885E+02  1.389628885E+02  0.000000000E+00  0.00000E+00  9.000E+00
      21    -1     0     0   501   511  0.000000000E+00  0.000000000E+00 -2.994589191E+01  2.994589191E+01  0.000000000E+00  0.00000E+00  9.000E+00
      23     2     1     2     0     0 -3.093734878E+01 -8.977320668E+00  8.382634687E+01  1.280152520E+02  9.123232142E+01  0.00000E+00  9.000E+00
      11     1     3     3     0     0  2.503546749E+01  1.147931122E+01  3.158883934E+00  2.772233335E+01  5.109999746E-04  0.00000E+00  9.000E+00
     -11     1     3     3     0     0 -5.597281626E+01 -2.045663189E+01  8.066746293E+01  1.002929186E+02  5.109969035E-04  0.00000E+00  9.000E+00
      -4     1     1     2     0   511  3.093734878E+01  8.977320668E+00  2.519064976E+01  4.089352847E+01  3.516011004E-07  0.00000E+00  9.000E+00
</event>
<event>
      6  10011  1.00000E+00  1.09190E+01 -1.00000E+00  1.91388E-01
       1    -1     0     0   501     0  0.000000000E+00  0.000000000E+00  6.730287564E+02  6.730287564E+02  0.000000000E+00  0.00000E+00  9.000E+00
      21    -1     0     0   511   501  0.000000000E+00  0.000000000E+00 -3.999865665E+00  3.999865665E+00  0.000000000E+00  0.00000E+00  9.000E+00
      23     2     1     2     0     0 -2.239461388E+00  1.068691660E+01  6.464396691E+02  6.519388172E+02  8.378991718E+01  0.00000E+00  9.000E+00
      11     1     3     3     0     0 -2.152838736E+01 -2.995171309E+01  3.735050190E+02  3.753219629E+02  5.109879881E-04  0.00000E+00  9.000E+00
     -11     1     3     3     0     0  1.928892597E+01  4.063862969E+01  2.729346501E+02  2.766168543E+02  5.110190515E-04  0.00000E+00  9.000E+00
       1     1     1     2   511     0  2.239461388E+00 -1.068691660E+01  2.258922162E+01  2.508980485E+01  5.734527530E-07  0.00000E+00  9.000E+00
</event>
<event>
      6  10011  1.00000E+00  5.97237E+00 -1.00000E+00  2.25705E-01
      -1    -1     0     0     0   501  0.000000000E+00  0.000000000E+00  3.721673562E+00  3.721673562E+00  0.000000000E+00  0.00000E+00  9.000E+00
       1    -1     0     0   511     0  0.000000000E+00  0.000000000E+00 -4.375106972E+01  4.375106972E+01  0.000000000E+00  0.00000E+00  9.000E+00
      23     2     1     2     0     0  4.887501085E+00 -3.432416583E+00 -2.951041736E+01  3.537654283E+01  1.857325764E+01  0.00000E+00  9.000E+00
      11     1     3     3     0     0  1.617458158E+00 -3.048585133E+00 -3.139414931E+01  3.158326540E+01  5.109986930E-04  0.00000E+00  9.000E+00
     -11     1     3     3     0     0  3.270042926E+00 -3.838314492E-01  1.883731951E+00  3.793277428E+00  5.109989004E-04  0.00000E+00  9.000E+00
      21     1     1     2   511   501 -4.887501085E+00  3.432416583E+00 -1.051897880E+01  1.209620045E+01  1.618466079E-07  0.00000E+00  9.000E+00
</event>
<event>
      6  10011  1.00000E+00  4.54190E+00 -1.00000E+00  2.51014E-01
       4    -1     0     0   501     0  0.000000000E+00  0.000000000E+00  2.073077033E+01  2.073077033E+01  0.000000000E+00  0.00000E+00  9.000E+00
      21    -1     0     0   511   501  0.000000000E+00  0.000000000E+00 -7.662742684E+00  7.662742684E+00  0.000000000E+00  0.00000E+00  9.000E+00
      23     2     1     2     0     0  4.281912123E+00 -1.514630566E+00  6.784457996E+00  2.064031208E+01  1.895691787E+01  0.00000E+00  9.000E+00
      11     1     3     3     0     0  1.081612920E+01 -5.189561528E+00  4.185632405E+00  1.270589307E+01  5.109988669E-04  0.00000E+00  9.000E+00
     -11     1     3     3     0     0 -6.534217077E+00  3.674930963E+00  2.598825591E+00  7.934419015E+00  5.109988681E-04  0.00000E+00  9.000E+00
       4     1     1     2   511     0 -4.281912123E+00  1.514630566E+00  6.283569650E+00  7.753200934E+00  8.136156823E-08  0.00000E+00  9.000E+00
</event>
<event>
      6  10011  1.00000E+00  1.93002E+01 -1.00000E+00  1.67613E-01
      -1    -1     0     0     0   511  0.000000000E+00  0.000000000E+00  5.148288718E+00  5.148288718E+00  0.000000000E+00  0.00000E+00  9.000E+00
       1    -1     0     0   501     0  0.000000000E+00  0.000000000E+00 -1.145886872E+03  1.145886872E+03  0.000000000E+00  0.00000E+00  9.000E+00
      23     2     1     2     0     0  1.491317749E+01 -1.225125468E+01 -1.114987959E+03  1.118854564E+03  9.091145298E+01  0.00000E+00  9.000E+00
      11     1     3     3     0     0 -1.398801508E+00 -3.938025667E+01 -2.337433552E+02  2.370415941E+02  5.110258577E-04  0.00000E+00  9.000E+00
     -11     1     3     3     0     0  1.631197900E+01  2.712900199E+01 -8.812446035E+02  8.818129703E+02  5.109158285E-04  0.00000E+00  9.000E+00
      21     1     1     2   501   511 -1.491317749E+01  1.225125468E+01 -2.575062423E+01  3.218059590E+01  7.555270797E-07  0.00000E+00  9.000E+00
</event>
<event>
      6  10011  1.00000E+00  1.58093E+01 -1.00000E+00  1.75214E-01
      21    -1     0     0   511   501  0.000000000E+00  0.000000000E+00  3.692828242E+01  3.692828242E+01  0.000000000E+00  0.00000E+00  9.000E+00
       1    -1     0     0   501     0  0.000000000E+00  0.000000000E+00 -1.371091984E+02  1.371091984E+02  0.000000000E+00  0.00000E+00  9.000E+00
      23     2     1     2     0     0  6.616056297E+00  1.435830255E+01 -1.180240455E+02  1.501982207E+02  9.154177811E+01  0.00000E+00  9.000E+00
      11     1     3     3     0     0  4.284382684E+01  9.185709293E+00 -2.549390036E+01  5.069427689E+01  5.109983984E-04  0.00000E+00  9.000E+00
     -11     1     3     3     0     0 -3.622777054E+01  5.172593257E+00 -9.253014511E+01  9.950394381E+01  5.109980059E-04  0.00000E+00  9.000E+00
       1     1     1     2   511     0 -6.616056297E+00 -1.435830255E+01  1.784312949E+01  2.383926012E+01  1.696541538E-07  0.00000E+00  9.000E+00
</event>
<event>
      6  10011  1.00000E+00  2.89550E+01 -1.00000E+00  1.54081E-01
       2    -1     0     0   501     0  0.000000000E+00  0.000000000E+00  3.017491871E+02  3.017491871E+02  0.000000000E+00  0.00000E+00  9.000E+00
      -2    -1     0     0     0   511  0.000000000E+00  0.000000000E+00 -1.401295277E+01  1.401295277E+01  0.000000000E+00  0.00000E+00  9.000E+00
      23     2     1     2     0     0 -2.767280177E+01  8.521188871E+00  2.554229235E+02  2.723738387E+02  9.004578597E+01  0.00000E+00  9.000E+00
      11     1     3     3     0     0 -2.338729170E+01  2.371942141E+01  2.560535398E+01  4.201440846E+01  5.109982430E-04  0.00000E+00  9.000E+00
     -11     1     3     3     0     0 -4.285510076E+00 -1.519823254E+01  2.298175695E+02  2.303594303E+02  5.110036139E-04  0.00000E+00  9.000E+00
      21     1     1     2   501   511  2.767280177E+01 -8.521188871E+00  3.231331088E+01  4.338830116E+01  5.179091453E-07  0.00000E+00  9.000E+00
</event>
<event>
      6  10011  1.00000E+00  3.11020E+00 -1.00000E+00  2.92059E-01
      -1    -1     0     0     0   511  0.000000000E+00  0.000000000E+00  1.439323423E-01  1.439323423E-01  0.000000000E+00  0.00000E+00  9.000E+00
       1    -1     0     0   501     0  0.000000000E+00  0.000000000E+00 -9.076204952E+02  9.076204952E+02  0.000000000E+00  0.00000E+00  9.000E+00
      23     2     1     2     0     0 -2.339677115E+00  2.049209226E+00 -8.681179341E+02  8.682831027E+02  1.664709333E+01  0.00000E+00  9.000E+00
      11     1     3     3     0     0 -8.600733659E+00 -2.764955926E+00 -4.550466338E+02  4.551363055E+02  5.109617343E-04  0.00000E+00  9.000E+00
     -11     1     3     3     0     0  6.261056544E+00  4.814165152E+00 -4.130713002E+02  4.131467973E+02  5.110622090E-04  0.00000E+00  9.000E+00
      21     1     1     2   501   511  2.339677115E+00 -2.049209226E+00 -3.935862878E+01  3.948132478E+01  1.001486635E-06  0.00000E+00  9.000E+00
</event>
<event>
      6  10011  1.00000E+00  1.13586E+01 -1.00000E+00  1.89517E-01
       2    -1     0     0   511     0  0.000000000E+00  0.000000000E+00  4.169181438E+01  4.169181438E+01  0.000000000E+00  0.00000E+00  9.000E+00
      -2    -1     0     0     0   501  0.000000000E+00  0.000000000E+00 -4.799205727E+01  4.799205727E+01  0.000000000E+00  0.00000E+00  9.000E+00
      23     2     1     2     0     0 -1.071445284E+01 -3.770585835E+00 -3.227852064E+01  6.133095765E+01  5.089760952E+01  0.00000E+00  9.000E+00
      11     1     3     3     0     0  4.308496647E+00 -1.543018177E+01 -3.819204802E+01  4.141601364E+01  5.109986449E-04  0.00000E+00  9.000E+00
     -11     1     3     3     0     0 -1.502294949E+01  1.165959594E+01  5.913527382E+00  1.991494402E+01  5.109990820E-04  0.00000E+00  9.000E+00
      21     1     1     2   511   501  1.071445284E+01  3.770585835E+00  2.597827775E+01  2.835291400E+01  3.421593458E-07  0.00000E+00  9.000E+00
</event>
<event>
      6  10011  1.00000E+00  5.16490E+00 -1.00000E+00  2.35994E-01
      -1    -1     0     0     0   501  0.000000000E+00  0.000000000E+00  1.551001251E+02  1.551001251E+02  0.000000000E+00  0.00000E+00  9.000E+00
       1    -1     0     0   511     0  0.000000000E+00  0.000000000E+00 -1.557898193E+01  1.557898193E+01  0.000000000E+00  0.00000E+00  9.000E+00
      23     2     1     2     0     0  2.097846917E+00  4.719665065E+00  1.384354780E+02  1.654013359E+02  9.036893346E+01  0.00000E+00  9.000E+00
      11     1     3     3     0     0  1.159762199E+01 -2.501038465E+01  1.302490248E+02  1.331346410E+02  5.109961574E-04  0.00000E+00  9.000E+00
     -11     1     3     3     0     0 -9.499775078E+00  2.973004971E+01  8.186453255E+00  3.226669490E+01  5.109989067E-04  0.00000E+00  9.000E+00
      21     1     1     2   511   501 -2.097846917E+00 -4.719665065E+00  1.085665199E+00  5.277771209E+00  2.248473867E-08  0.00000E+00  9.000E+00
</event>
<event>
      6  10011  1.00000E+00  3.66292E+01 -1.00000E+00  1.47219E-01
      -4    -1     0     0     0   501  0.000000000E+00  0.000000000E+00  2.608592495E+00  2.608592495E+00  0.000000000E+00  0.00000E+00  9.000E+00
      21    -1     0     0   501   511  0.000000000E+00  0.000000000E+00 -7.130592592E+02  7.130592592E+02  0.000000000E+00  0.00000E+00  9.000E+00
      23     2     1     2     0     0 -2.858788603E+01 -2.290046835E+01 -2.809402968E+02  2.845984181E+02  2.696498786E+01  0.00000E+00  9.000E+00
      11     1     3     3     0     0 -3.309449736E+01 -2.086807724E+01 -2.195021994E+02  2.229617410E+02  5.110057135E-04  0.00000E+00  9.000E+00
     -11     1     3     3     0     0  4.506611331E+00 -2.032391107E+00 -6.143809738E+01  6.163667714E+01  5.110005929E-04  0.00000E+00  9.000E+00
      -4     1     1     2     0   511  2.858788603E+01  2.290046835E+01 -4.295103700E+02  4.310694336E+02  4.633853847E-06  0.00000E+00  9.000E+00
</event>
<event>
      6  10011  1.00000E+00  4.36692E+01 -1.00000E+00  1.42485E-01
       1    -1     0     0   501     0  0.000000000E+00  0.000000000E+00  1.660678756E+01  1.660678756E+01  0.000000000E+00  0.00000E+00  9.000E+00
      21    -1     0     0   511   501  0.000000000E+00  0.000000000E+00 -7.372930238E+02  7.372930238E+02  0.000000000E+00  0.00000E+00  9.000E+00
      23     2     1     2     0     0  3.647973262E+01 -2.400470736E+01 -1.428415993E+02  1.744074289E+02  9.004016830E+01  0.00000E+00  9.000E+00
      11     1     3     3     0     0  4.578912166E+01 -4.370339747E+01 -1.383768953E+02  1.521669996E+02  5.109871712E-04  0.00000E+00  9.000E+00
     -11     1     3     3     0     0 -9.309389036E+00  1.969869011E+01 -4.464704054E+00  2.224042938E+01  5.109986446E-04  0.00000E+00  9.000E+00
       1     1     1     2   511     0 -3.647973262E+01  2.400470736E+01 -5.778446369E+02  5.794923824E+02  6.741388090E-06  0.00000E+00  9.000E+00
</event>
<event>
      6  10011  1.00000E+00  8.76067E+00 -1.00000E+00  2.02580E-01
       2    -1     0     0   501     0  0.000000000E+00  0.000000000E+00  1.635449294E+02  1.635449294E+02  0.000000000E+00  0.00000E+00  9.000E+00
      21    -1     0     0   511   501  0.000000000E+00  0.000000000E+00 -1.446427196E+00  1.446427196E+00  0.000000000E+00  0.00000E+00  9.000E+00
      23     2     1     2     0     0 -4.247488876E+00  7.662126984E+00  1.315837004E+02  1.332438767E+02  1.905022600E+01  0.00000E+00  9.000E+00
      11     1     3     3     0     0  5.930888978E-01  1.014803034E+01  1.201720185E+02  1.206011953E+02  5.110020991E-04  0.00000E+00  9.000E+00
     -11     1     3     3     0     0 -4.840577774E+00 -2.485903361E+00  1.141168187E+01  1.264268136E+01  5.109986997E-04  0.00000E+00  9.000E+00
       2     1     1     2   511     0  4.247488876E+00 -7.662126984E+00  3.051480177E+01  3.174747988E+01  3.527832211E-07  0.00000E+00  9.000E+00
</event>
<event>
      6  10011  1.00000E+00  1.46339E+01 -1.00000E+00  1.78352E-01
       2    -1     0     0   501     0  0.000000000E+00  0.000000000E+00  1.218732744E+03  1.218732744E+03  0.000000000E+00  0.00000E+00  9.000E+00
      -2    -1     0     0     0   511  0.000000000E+00  0.000000000E+00 -2.830737909E+00  2.830737909E+00  0.000000000E+00  0.00000E+00  9.000E+00
      23     2     1     2     0     0  4.696607623E+00  1.385980298E+01  1.166419341E+03  1.169962257E+03  8.979672384E+01  0.00000E+00  9.000E+00
      11     1     3     3     0     0  1.490691258E+00  1.328089408E+01  1.166621669E+03  1.166698214E+03  5.105307311E-04  0.00000E+00  9.000E+00
     -11     1     3     3     0     0  3.205916366E+00  5.789089004E-01 -2.023285752E-01  3.264042336E+00  5.109984088E-04  0.00000E+00  9.000E+00
      21     1     1     2   501   511 -4.696607623E+00 -1.385980298E+01  4.948266509E+01  5.160122485E+01  1.330132103E-06  0.00000E+00  9.000E+00
</event>
<event>
      6  10011  1.00000E+00  1.29065E+01 -1.00000E+00  1.83712E-01
       2    -1     0     0   501     0  0.000000000E+00  0.000000000E+00  6.410182842E+02  6.410182842E+02  0.000000000E+00  0.00000E+00  9.000E+00
      -2    -1     0     0     0   511  0.000000000E+00  0.000000000E+00 -8.107931591E-01  8.107931591E-01  0.000000000E+00  0.00000E+00  9.000E+00
      23     2     1     2     0     0  6.122438907E+00  1.136190117E+01  5.688632705E+02  5.693268370E+02  1.900130832E+01  0.00000E+00  9.000E+00
      11     1     3     3     0     0 -2.795292493E+00 -4.192259034E+00  1.280607862E+02  1.281598753E+02  5.109995311E-04  0.00000E+00  9.000E+00
     -11     1     3     3     0     0  8.917731400E+00  1.555416020E+01  4.408024844E+02  4.411669617E+02  5.110003358E-04  0.00000E+00  9.000E+00
      21     1     1     2   501   511 -6.122438907E+00 -1.136190117E+01  7.134422052E+01  7.250224036E+01  1.364738124E-06  0.00000E+00  9.000E+00
</event>
<event>
      6  10011  1.00000E+00  1.21724E+01 -1.00000E+00  1.86326E-01
       2    -1     0     0   511     0  0.000000000E+00  0.000000000E+00  1.442413415E+03  1.442413415E+03  0.000000000E+00  0.00000E+00  9.000E+00
      -2    -1     0     0     0   501  0.000000000E+00  0.000000000E+00 -2.029193240E+00  2.029193240E+00  0.000000000E+00  0.00000E+00  9.000E+00
      23     2     1     2     0     0  6.338087369E+00 -1.039214594E+01  1.148341280E+03  1.152146101E+03  9.276193016E+01  0.00000E+00  9.000E+00
      11     1     3     3     0     0  2.029992629E+01 -3.317655737E+01  1.033708296E+03  1.034439758E+03  5.104565721E-04  0.00000E+00  9.000E+00
     -11     1     3     3     0     0 -1.396183892E+01  2.278441143E+01  1.146329837E+02  1.177063435E+02  5.109861978E-04  0.00000E+00  9.000E+00
      21     1     1     2   511   501 -6.338087369E+00  1.039214594E+01  2.920429420E+02  2.922965070E+02  5.262114633E-06  0.00000E+00  9.000E+00
</event>
<event>
      6  10011  1.00000E+00  2.20853E+00 -1.00000E+00  3.43907E-01
      21    -1     0     0   511   501  0.000000000E+00  0.000000000E+00  1.049431272E+01  1.049431272E+01  0.000000000E+00  0.00000E+00  9.000E+00
       2    -1     0     0   501     0  0.000000000E+00  0.000000000E+00 -7.942933135E+02  7.942933135E+02  0.000000000E+00  0.00000E+00  9.000E+00
      23     2     1     2     0     0  6.928146698E-01  2.097050658E+00 -7.925694346E+02  7.957433947E+02  7.096734408E+01  0.00000E+00  9.000E+00
      11     1     3     3     0     0 -2.664484563E+01 -2.190099646E+01 -4.102520317E+02  4.116993211E+02  5.109527092E-04  0.00000E+00  9.000E+00
     -11     1     3     3     0     0  2.733766030E+01  2.399804712E+01 -3.823174029E+02  3.840440737E+02  5.109410278E-04  0.00000E+00  9.000E+00
       2     1     1     2   511     0 -6.928146698E-01 -2.097050658E+00  8.770433847E+00  9.044231504E+00  3.832977963E-07  0.00000E+00  9.000E+00
</event>
<event>
      6  10011  1.00000E+00  1.54312E+01 -1.00000E+00  1.76185E-01
       3    -1     0     0   511     0  0.000000000E+00  0.000000000E+00  3.860901080E+01  3.860901080E+01  0.000000000E+00  0.00000E+00  9.000E+00
      -3    -1     0     0     0   501  0.000000000E+00  0.000000000E+00 -8.347275319E+01  8.347275319E+01  0.000000000E+00  0.00000E+00  9.000E+00
      23     2     1     2     0     0  1.454768347E+01  5.146522019E+00 -5.451737054E+01  1.038797224E+02  8.706739483E+01  0.00000E+00  9.000E+00
      11     1     3     3     0     0  1.647378070E+01  3.973012607E+01 -5.426352297E+01  6.924159367E+01  5.109985951E-04  0.00000E+00  9.000E+00
     -11     1     3     3     0     0 -1.926097235E+00 -3.458360405E+01 -2.538475683E-01  3.463812868E+01  5.109987856E-04  0.00000E+00  9.000E+00
      21     1     1     2   511   501 -1.454768347E+01 -5.146522019E+00  9.653628149E+00  1.820204163E+01  1.910823375E-07  0.00000E+00  9.000E+00
</event>
<event>
      6  10011  1.00000E+00  5.73844E+00 -1.00000E+00  2.28440E-01
       3    -1     0     0   501     0  0.000000000E+00  0.000000000E+00  9.045061924E+00  9.045061924E+00  0.000000000E+00  0.00000E+00  9.000E+00
      21    -1     0     0   511   501  0.000000000E+00  0.000000000E+00 -2.987749274E+01  2.987749274E+01  0.000000000E+00  0.00000E+00  9.000E+00
      23     2     1     2     0     0  1.052980108E+00 -5.641008285E+00 -5.174078542E+00  2.224581225E+01  2.086085646E+01  0.00000E+00  9.000E+00
      11     1     3     3     0     0 -4.591006086E+00 -1.235602437E+00 -1.165565055E+01  1.258801971E+01  5.109989245E-04  0.00000E+00  9.000E+00
     -11     1     3     3     0     0  5.643986193E+00 -4.405405849E+00  6.481572006E+00  9.657792542E+00  5.109989579E-04  0.00000E+00  9.000E+00
       3     1     1     2   511     0 -1.052980108E+00  5.641008285E+00 -1.565835228E+01  1.667674242E+01  1.334361336E-07  0.00000E+00  9.000E+00
</event>
<event>
      6  10011  1.00000E+00  5.38080E+00 -1.00000E+00  2.32994E-01
      -3    -1     0     0     0   501  0.000000000E+00  0.000000000E+00  3.419675512E+01  3.419675512E+01  0.000000000E+00  0.00000E+00  9.000E+00
      21    -1     0     0   501   511  0.000000000E+00  0.000000000E+00 -9.441869713E+01  9.441869713E+01  0.000000000E+00  0.00000E+00  9.000E+00
      23     2     1     2     0     0 -4.804162919E+00 -2.423434067E+00 -2.930919068E+01  9.723789325E+01  9.255931186E+01  0.00000E+00  9.000E+00
      11     1     3     3     0     0  2.473028213E+00 -2.409989538E+01 -5.663999371E+01  6.160365016E+01  5.109980028E-04  0.00000E+00  9.000E+00
     -11     1     3     3     0     0 -7.277191132E+00  2.167646132E+01  2.733080303E+01  3.563424309E+01  5.109984171E-04  0.00000E+00  9.000E+00
      -3     1     1     2     0   511  4.804162919E+00  2.423434067E+00 -3.091275134E+01  3.137755901E+01  1.117587090E-07  0.00000E+00  9.000E+00
</event>
<event>
      6  10011  1.00000E+00  1.01141E+02 -1.00000E+00  1.23584E-01
      21    -1     0     0   511   501  0.000000000E+00  0.000000000E+00  4.085751119E+01  4.085751119E+01  0.000000000E+00  0.00000E+00  9.000E+00
       2    -1     0     0   501     0  0.000000000E+00  0.000000000E+00 -7.497053056E+02  7.497053056E+02  0.000000000E+00  0.00000E+00  9.000E+00
      23     2     1     2     0     0 -9.331206515E+00 -1.007100576E+02 -6.678086050E+02  6.814124518E+02  9.013883431E+01  0.00000E+00  9.000E+00
      11     1     3     3     0     0 -3.959759950E+01 -9.326633888E+01 -5.638633830E+02  5.728948373E+02  5.110021296E-04  0.00000E+00  9.000E+00
     -11     1     3     3     0     0  3.026639298E+01 -7.443718670E+00 -1.039452220E+02  1.085176145E+02  5.109956690E-04  0.00000E+00  9.000E+00
       2     1     1     2   511     0  9.331206515E+00  1.007100576E+02 -4.103918940E+01  1.091503650E+02  5.538543326E-07  0.00000E+00  9.000E+00
</event>
<event>
      6  10011  1.00000E+00  2.80414E+00 -1.00000E+00  3.05910E-01
       2    -1     0     0   501     0  0.000000000E+00  0.000000000E+00  1.160499855E+00  1.160499855E+00  0.000000000E+00  0.00000E+00  9.000E+00
      -2    -1     0     0     0   511  0.000000000E+00  0.000000000E+00 -1.258631013E+02  1.258631013E+02  0.000000000E+00  0.00000E+00  9.000E+00
      23     2     1     2     0     0 -2.477431817E+00 -1.313601596E+00 -7.008628900E+01  7.233535011E+01  1.767630482E+01  0.00000E+00  9.000E+00
      11     1     3     3     0     0 -9.271281227E+00 -4.070561411E+00 -4.825038077E+01  4.930137290E+01  5.109986262E-04  0.00000E+00  9.000E+00
     -11     1     3     3     0     0  6.793849410E+00  2.756959816E+00 -2.183590824E+01  2.303397721E+01  5.109990687E-04  0.00000E+00  9.000E+00
      21     1     1     2   501   511  2.477431817E+00  1.313601596E+00 -5.461631246E+01  5.468825106E+01  7.290917529E-07  0.00000E+00  9.000E+00
</event>
<event>
      6  10011  1.00000E+00  3.11375E+00 -1.00000E+00  2.91914E-01
      21    -1     0     0   501   511  0.000000000E+00  0.000000000E+00  3.440408421E+01  3.440408421E+01  0.000000000E+00  0.00000E+00  9.000E+00
      -2    -1     0     0     0   501  0.000000000E+00  0.000000000E+00 -4.896540697E+00  4.896540697E+00  0.000000000E+00  0.00000E+00  9.000E+00
      23     2     1     2     0     0  3.082476490E+00 -4.401678001E-01  2.453211012E+01  3.343118316E+01  2.249720364E+01  0.00000E+00  9.000E+00
      11     1     3     3     0     0  2.787885037E+00  7.579709033E+00  2.407431374E+01  2.539285085E+01  5.109986416E-04  0.00000E+00  9.000E+00
     -11     1     3     3     0     0  2.945914528E-01 -8.019876834E+00  4.577963844E-01  8.038332311E+00  5.109988546E-04  0.00000E+00  9.000E+00
      -2     1     1     2     0   511 -3.082476490E+00  4.401678001E-01  4.975433386E+00  5.869441743E+00  2.326443046E-08  0.00000E+00  9.000E+00
</event>
<event>
      6  10011  1.00000E+00  2.28174E+00 -1.00000E+00  3.38130E-01
       2    -1     0     0   511     0  0.000000000E+00  0.000000000E+00  1.406852219E+02  1.406852219E+02  0.000000000E+00  0.00000E+00  9.000E+00
      -2    -1     0     0     0   501  0.000000000E+00  0.000000000E+00 -7.283550623E-01  7.283550623E-01  0.000000000E+00  0.00000E+00  9.000E+00
      23     2     1     2     0     0 -6.304174757E-01  2.192927301E+00  1.112536880E+02  1.126198480E+02  1.733899355E+01  0.00000E+00  9.000E+00
      11     1     3     3     0     0  1.915623420E+00 -3.930146765E+00  7.705040683E+00  8.859081153E+00  5.109989760E-04  0.00000E+00  9.000E+00
     -11     1     3     3     0     0 -2.546040896E+00  6.123074066E+00  1.035486474E+02  1.037607668E+02  5.109998752E-04  0.00000E+00  9.000E+00
      21     1     1     2   511   501  6.304174757E-01 -2.192927301E+00  2.870317880E+01  2.879372900E+01  9.483040915E-08  0.00000E+00  9.000E+00
</event>
<event>
      6  10011  1.00000E+00  5.93353E+00 -1.00000E+00  2.26147E-01
      -2    -1     0     0     0   501  0.000000000E+00  0.000000000E+00  3.950060551E+02  3.950060551E+02  0.000000000E+00  0.00000E+00  9.000E+00
      21    -1     0     0   501   511  0.000000000E+00  0.000000000E+00 -8.022258290E-01  8.022258290E-01  0.000000000E+00  0.00000E+00  9.000E+00
      23     2     1     2     0     0 -2.640912294E+00  5.313410623E+00  3.788140439E+02  3.793142746E+02  1.854810849E+01  0.00000E+00  9.000E+00
      11     1     3     3     0     0  6.214171953E+00  7.961579120E+00  2.196967528E+02  2.199287745E+02  5.109967727E-04  0.00000E+00  9.000E+00
     -11     1     3     3     0     0 -8.855084247E+00 -2.648168497E+00  1.591172911E+02  1.593855001E+02  5.110035791E-04  0.00000E+00  9.000E+00
      -2     1     1     2     0   511  2.640912294E+00 -5.313410623E+00  1.538978538E+01  1.649400631E+01  4.010703660E-07  0.00000E+00  9.000E+00
</event>
<event>
      6  10011  1.00000E+00  2.03411E+00 -1.00000E+00  3.59468E-01
      -4    -1     0     0     0   501  0.000000000E+00  0.000000000E+00  2.480015148E+02  2.480015148E+02  0.000000000E+00  0.00000E+00  9.000E+00
      21    -1     0     0   501   511  0.000000000E+00  0.000000000E+00 -2.454856875E+01  2.454856875E+01  0.000000000E+00  0.00000E+00  9.000E+00
      23     2     1     2     0     0 -2.195430618E-01  2.022226014E+00  2.398087437E+02  2.560682841E+02  8.976967719E+01  0.00000E+00  9.000E+00
      11     1     3     3     0     0 -1.833242168E+01  1.644691697E+01  2.293368456E+02  2.306555170E+02  5.109841919E-04  0.00000E+00  9.000E+00
     -11     1     3     3     0     0  1.811287861E+01 -1.442469095E+01  1.047189813E+01  2.541276710E+01  5.109980356E-04  0.00000E+00  9.000E+00
      -4     1     1     2     0   511  2.195430618E-01 -2.022226014E+00 -1.635579766E+01  1.648179949E+01  5.170509688E-07  0.00000E+00  9.000E+00
</event>
<event>
      6  10011  1.00000E+00  1.26162E+00 -1.00000E+00  5.12859E-01
      -1    -1     0     0     0   511  0.000000000E+00  0.000000000E+00  9.368355824E+00  9.368355824E+00  0.000000000E+00  0.00000E+00  9.000E+00
       1    -1     0     0   501     0  0.000000000E+00  0.000000000E+00 -1.768473704E+01  1.768473704E+01  0.000000000E+00  0.00000E+00  9.000E+00
      23     2     1     2     0     0 -1.906528697E-02 -1.261471399E+00 -1.048867616E+01  2.454101425E+01  2.215078733E+01  0.00000E+00  9.000E+00
      11     1     3     3     0     0 -3.025540932E+00  7.540754702E+00  2.557881659E+00  8.518194542E+00  5.109989383E-04  0.00000E+00  9.000E+00
     -11     1     3     3     0     0  3.006475645E+00 -8.802226101E+00 -1.304655782E+01  1.602281971E+01  5.109990121E-04  0.00000E+00  9.000E+00
      21     1     1     2   501   511  1.906528697E-02  1.261471399E+00  2.172294952E+00  2.512078609E+00  2.475461710E-08  0.00000E+00  9.000E+00
</event>
<event>
      6  10011  1.00000E+00  2.02068E+00 -1.00000E+00  3.60787E-01
       1    -1     0     0   501     0  0.000000000E+00  0.000000000E+00  7.957189947E+01  7.957189947E+01  0.000000000E+00  0.00000E+00  9.000E+00
      -1    -1     0     0     0   511  0.000000000E+00  0.000000000E+00 -4.138520403E+01  4.138520403E+01  0.000000000E+00  0.00000E+00  9.000E+00
      23     2     1     2     0     0  1.182124544E+00 -1.638819527E+00  5.315096372E+01  1.058570216E+02  9.152377249E+01  0.00000E+00  9.000E+00
      11     1     3     3     0     0  9.193917254E+00 -3.959633564E+01  5.333865215E+01  6.706272977E+01  5.109990262E-04  0.00000E+00  9.000E+00
     -11     1     3     3     0     0 -8.011792710E+00  3.795751611E+01 -1.876884280E-01  3.879429184E+01  5.109982289E-04  0.00000E+00  9.000E+00
      21     1     1     2   501   511 -1.182124544E+00  1.638819527E+00 -1.496426828E+01  1.510008189E+01  2.483961445E-07  0.00000E+00  9.000E+00
</event>
<event>
      6  10011  1.00000E+00  1.97083E+01 -1.00000E+00  1.66855E-01
       1    -1     0     0   501     0  0.000000000E+00  0.000000000E+00  1.242526806E+02  1.242526806E+02  0.000000000E+00  0.00000E+00  9.000E+00
      21    -1     0     0   511   501  0.000000000E+00  0.000000000E+00 -6.437673286E+00  6.437673286E+00  0.000000000E+00  0.00000E+00  9.000E+00
      23     2     1     2     0     0  1.788363625E+01 -8.282079173E+00  3.786714384E+01  4.834912391E+01  2.270021848E+01  0.00000E+00  9.000E+00
      11     1     3     3     0     0  1.622940079E+01 -1.203468505E+01  1.512121350E+01  2.523644571E+01  5.109988075E-04  0.00000E+00  9.000E+00
     -11     1     3     3     0     0  1.654235460E+00  3.752605882E+00  2.274593034E+01  2.311267819E+01  5.109991024E-04  0.00000E+00  9.000E+00
       1     1     1     2   511     0 -1.788363625E+01  8.282079173E+00  7.994786351E+01  8.234123002E+01  1.001819152E-06  0.00000E+00  9.000E+00
</event>
<event>
      6  10011  1.00000E+00  7.25704E+00 -1.00000E+00  2.13294E-01
       2    -1     0     0   511     0  0.000000000E+00  0.000000000E+00  9.471329762E+02  9.471329762E+02  0.000000000E+00  0.00000E+00  9.000E+00
      -2    -1     0     0     0   501  0.000000000E+00  0.000000000E+00 -2.455788073E-01  2.455788073E-01  0.000000000E+00  0.00000E+00  9.000E+00
      23     2     1     2     0     0 -5.527699354E+00  4.702037007E+00  3.757949981E+02  3.762400489E+02  1.679372496E+01  0.00000E+00  9.000E+00
      11     1     3     3     0     0 -4.195230013E+00  6.252958976E+00  3.703064951E+02  3.703830447E+02  5.109651829E-04  0.00000E+00  9.000E+00
     -11     1     3     3     0     0 -1.332469340E+00 -1.550921969E+00  5.488502983E+00  5.857004247E+00  5.109987497E-04  0.00000E+00  9.000E+00
      21     1     1     2   511   501  5.527699354E+00 -4.702037007E+00  5.710923993E+02  5.711385061E+02  2.996875069E-06  0.00000E+00  9.000E+00
</event>
<event>
      6  10011  1.00000E+00  3.83694E+00 -1.00000E+00  2.67691E-01
       2    -1     0     0   501     0  0.000000000E+00  0.000000000E+00  2.022912928E+00  2.022912928E+00  0.000000000E+00  0.00000E+00  9.000E+00
      21    -1     0     0   511   501  0.000000000E+00  0.000000000E+00 -2.197038293E+02  2.197038293E+02  0.000000000E+00  0.00000E+00  9.000E+00
      23     2     1     2     0     0  8.724907071E-01 -3.736420725E+00 -1.104787737E+02  1.144559565E+02  2.966284642E+01  0.00000E+00  9.000E+00
      11     1     3     3     0     0  1.099252945E+01  2.943767695E+00 -8.953343544E+01  9.025373972E+01  5.109952262E-04  0.00000E+00  9.000E+00
     -11     1     3     3     0     0 -1.012003875E+01 -6.680188419E+00 -2.094533830E+01  2.420221681E+01  5.109989851E-04  0.00000E+00  9.000E+00
       2     1     1     2   511     0 -8.724907071E-01  3.736420725E+00 -1.072021426E+02  1.072707857E+02  1.004917341E-06  0.00000E+00  9.000E+00
</event>
<event>
      6  10011  1.00000E+00  1.44567E+00 -1.00000E+00  4.57266E-01
       3    -1     0     0   501     0  0.000000000E+00  0.000000000E+00  5.167853332E-01  5.167853332E-01  0.000000000E+00  0.00000E+00  9.000E+00
      -3    -1     0     0     0   511  0.000000000E+00  0.000000000E+00 -2.814003317E+02  2.814003317E+02  0.000000000E+00  0.00000E+00  9.000E+00
      23     2     1     2     0     0 -2.823020657E-02 -1.445397696E+00 -1.602444587E+02  1.612693676E+02  1.809509350E+01  0.00000E+00  9.000E+00
      11     1     3     3     0     0  5.087531998E+00  1.315127617E+00 -1.425029802E+02  1.425998314E+02  5.109938491E-04  0.00000E+00  9.000E+00
     -11     1     3     3     0     0 -5.115762205E+00 -2.760525314E+00 -1.774147848E+01  1.866953620E+01  5.110001423E-04  0.00000E+00  9.000E+00
      21     1     1     2   501   511  2.823020657E-02  1.445397696E+00 -1.206390877E+02  1.206477494E+02  1.246364335E-06  0.00000E+00  9.000E+00
</event>
<event>
      5  10011  1.00000E+00  8.94427E-01 -1.00000E+00  7.42875E-01
       1    -1     0     0   501     0  0.000000000E+00  0.000000000E+00  4.009028259E+02  4.009028259E+02  0.000000000E+00  0.00000E+00  9.000E+00
      -1    -1     0     0     0   501  0.000000000E+00  0.000000000E+00 -3.035560415E-01  3.035560415E-01  0.000000000E+00  0.00000E+00  9.000E+00
      23     2     1     2     0     0  0.000000000E+00  0.000000000E+00  4.005992698E+02  4.012063819E+02  2.206322505E+01  0.00000E+00  9.000E+00
      11     1     3     3     0     0  3.210701331E+00  8.130289754E+00  7.792763267E+01  7.841636404E+01  5.109937653E-04  0.00000E+00  9.000E+00
     -11     1     3     3     0     0 -3.210701331E+00 -8.130289754E+00  3.226716371E+02  3.227900179E+02  5.110030056E-04  0.00000E+00  9.000E+00
</event>
<event>
      6  10011  1.00000E+00  3.00237E+00 -1.00000E+00  2.96625E-01
      -2    -1     0     0     0   501  0.000000000E+00  0.000000000E+00  1.364727095E+02  1.364727095E+02  0.000000000E+00  0.00000E+00  9.000E+00
       2    -1     0     0   511     0  0.000000000E+00  0.000000000E+00 -1.462831190E+01  1.462831190E+01  0.000000000E+00  0.00000E+00  9.000E+00
      23     2     1     2     0     0  1.614718342E+00  2.531187215E+00  1.227205607E+02  1.479734207E+02  8.262434868E+01  0.00000E+00  9.000E+00
      11     1     3     3     0     0  1.607987140E+01 -3.293233405E+01  9.148020901E+01  9.854810770E+01  5.109993477E-04  0.00000E+00  9.000E+00
     -11     1     3     3     0     0 -1.446515306E+01  3.546352126E+01  3.124035172E+01  4.942531304E+01  5.109984457E-04  0.00000E+00  9.000E+00
      21     1     1     2   511   501 -1.614718342E+00 -2.531187215E+00 -8.761631391E-01  3.127600659E+00  5.154872554E-08  0.00000E+00  9.000E+00
</event>
<event>
      6  10011  1.00000E+00  4.53889E+00 -1.00000E+00  2.51076E-01
      -2    -1     0     0     0   511  0.000000000E+00  0.000000000E+00  7.015681872E+00  7.015681872E+00  0.000000000E+00  0.00000E+00  9.000E+00
       2    -1     0     0   501     0  0.000000000E+00  0.000000000E+00 -1.321971029E+02  1.321971029E+02  0.000000000E+00  0.00000E+00  9.000E+00
      23     2     1     2     0     0  8.955248989E-01 -4.449665905E+00 -1.304535596E+02  1.322559941E+02  2.128180592E+01  0.00000E+00  9.000E+00
      11     1     3     3     0     0  2.616329809E+00  5.909528260E+00 -1.509312393E+01  1.641858995E+01  5.109979146E-04  0.00000E+00  9.000E+00
     -11     1     3     3     0     0 -1.720804910E+00 -1.035919416E+01 -1.153604357E+02  1.158374041E+02  5.109992895E-04  0.00000E+00  9.000E+00
      21     1     1     2   501   511 -8.955248989E-01  4.449665905E+00  5.272138583E+00  6.956790693E+00  2.027932184E-07  0.00000E+00  9.000E+00
</event>
<event>
      6  10011  1.00000E+00  3.11076E+00 -1.00000E+00  2.92036E-01
      21    -1     0     0   511   501  0.000000000E+00  0.000000000E+00  1.264572148E+00  1.264572148E+00  0.000000000E+00  0.00000E+00  9.000E+00
       2    -1     0     0   501     0  0.000000000E+00  0.000000000E+00 -1.349637827E+03  1.349637827E+03  0.000000000E+00  0.00000E+00  9.000E+00
      23     2     1     2     0     0  9.719638594E-01  2.955015972E+00 -1.347274428E+03  1.347603270E+03  2.960595293E+01  0.00000E+00  9.000E+00
      11     1     3     3     0     0  4.611674962E+00 -1.001410892E+01 -2.465005240E+02  2.467469519E+02  5.111068470E-04  0.00000E+00  9.000E+00
     -11     1     3     3     0     0 -3.639711102E+00  1.296912489E+01 -1.100773904E+03  1.100856318E+03  5.105212670E-04  0.00000E+00  9.000E+00
       2     1     1     2   511     0 -9.719638594E-01 -2.955015972E+00 -1.098827128E+00  3.299129308E+00  4.957744636E-07  0.00000E+00  9.000E+00
</event>
<event>
      6  10011  1.00000E+00  6.14366E+00 -1.00000E+00  2.23810E-01
      -2    -1     0     0     0   511  0.000000000E+00  0.000000000E+00  7.409903874E+01  7.409903874E+01  0.000000000E+00  0.00000E+00  9.000E+00
       2    -1     0     0   501     0  0.000000000E+00  0.000000000E+00 -8.647589880E+00  8.647589880E+00  0.000000000E+00  0.00000E+00  9.000E+00
      23     2     1     2     0     0 -1.549063319E+00 -5.945158573E+00  3.502393968E+01  5.170507868E+01  3.753657288E+01  0.00000E+00  9.000E+00
      11     1     3     3     0     0  1.229575172E+01 -1.630591534E+01  1.559823427E+01  2.569772943E+01  5.109986828E-04  0.00000E+00  9.000E+00
     -11     1     3     3     0     0 -1.384481504E+01  1.036075676E+01  1.942570541E+01  2.600734925E+01  5.109988597E-04  0.00000E+00  9.000E+00
      21     1     1     2   501   511  1.549063319E+00  5.945158573E+00  3.042750918E+01  3.104154994E+01  2.431447636E-07  0.00000E+00  9.000E+00
</event>
<event>
      6  10011  1.00000E+00  5.44429E+00 -1.00000E+00  2.32150E-01
      -3    -1     0     0     0   511  0.000000000E+00  0.000000000E+00  2.785903085E+02  2.785903085E+02  0.000000000E+00  0.00000E+00  9.000E+00
       3    -1     0     0   501     0  0.000000000E+00  0.000000000E+00 -6.630854323E-01  6.630854323E-01  0.000000000E+00  0.00000E+00  9.000E+00
      23     2     1     2     0     0  5.281816598E+00  1.320124383E+00  1.848416996E+02  1.860087963E+02  2.007929436E+01  0.00000E+00  9.000E+00
      11     1     3     3     0     0 -7.144944675E+00  3.555422758E+00  5.952045358E+01  6.005310699E+01  5.110008642E-04  0.00000E+00  9.000E+00
     -11     1     3     3     0     0  1.242676127E+01 -2.235298375E+00  1.253212461E+02  1.259556893E+02  5.110013709E-04  0.00000E+00  9.000E+00
      21     1     1     2   501   511 -5.281816598E+00 -1.320124383E+00  9.308552345E+01  9.324459765E+01  7.731391055E-07  0.00000E+00  9.000E+00
</event>
<event>
      6  10011  1.00000E+00  1.23454E+00 -1.00000E+00  5.23095E-01
       2    -1     0     0   511     0  0.000000000E+00  0.000000000E+00  3.052786254E+00  3.052786254E+00  0.000000000E+00  0.00000E+00  9.000E+00
      -2    -1     0     0     0   501  0.000000000E+00  0.000000000E+00 -8.951371504E+01  8.951371504E+01  0.000000000E+00  0.00000E+00  9.000E+00
      23     2     1     2     0     0  1.233829454E+00 -4.176864308E-02 -8.631654716E+01  9.132355085E+01  2.979799569E+01  0.00000E+00  9.000E+00
      11     1     3     3     0     0 -6.624620791E+00  1.256406401E+01 -5.251543085E+01  5.440231413E+01  5.109991880E-04  0.00000E+00  9.000E+00
     -11     1     3     3     0     0  7.858450246E+00 -1.260583265E+01 -3.380111632E+01  3.692123673E+01  5.109988696E-04  0.00000E+00  9.000E+00
      21     1     1     2   511   501 -1.233829454E+00  4.176864308E-02 -1.443816250E-01  1.242950440E+00  1.026164908E-08  0.00000E+00  9.000E+00
</event>
<event>
      6  10011  1.00000E+00  3.02811E+00 -1.00000E+00  2.95506E-01
       2    -1     0     0   511     0  0.000000000E+00  0.000000000E+00  7.030703253E+01  7.030703253E+01  0.000000000E+00  0.00000E+00  9.000E+00
      -2    -1     0     0     0   501  0.000000000E+00  0.000000000E+00 -5.008331580E+00  5.008331580E+00  0.000000000E+00  0.00000E+00  9.000E+00
      23     2     1     2     0     0 -2.008377928E+00  2.266251932E+00  4.060041912E+01  5.043214477E+01  2.976302594E+01  0.00000E+00  9.000E+00
      11     1     3     3     0     0  9.897443515E+00 -1.810020039E+00  2.585553562E+00  1.038848633E+01  5.109988870E-04  0.00000E+00  9.000E+00
     -11     1     3     3     0     0 -1.190582144E+01  4.076271972E+00  3.801486556E+01  4.004365844E+01  5.109985128E-04  0.00000E+00  9.000E+00
      21     1     1     2   511   501  2.008377928E+00 -2.266251932E+00  2.469828183E+01  2.488321934E+01  3.431313914E-07  0.00000E+00  9.000E+00
</event>
<event>
      6  10011  1.00000E+00  7.44315E+00 -1.00000E+00  2.11785E-01
      21    -1     0     0   501   511  0.000000000E+00  0.000000000E+00  1.513688986E+02  1.513688986E+02  0.000000000E+00  0.00000E+00  9.000E+00
      -2    -1     0     0     0   501  0.000000000E+00  0.000000000E+00 -7.920803628E+00  7.920803628E+00  0.000000000E+00  0.00000E+00  9.000E+00
      23     2     1     2     0     0 -3.074276245E-01  7.436795819E+00  1.411455836E+02  1.514985533E+02  5.453746822E+01  0.00000E+00  9.000E+00
      11     1     3     3     0     0  5.886472198E+00 -1.881153790E+01  2.289259727E+01  3.020919600E+01  5.109983524E-04  0.00000E+00  9.000E+00
     -11     1     3     3     0     0 -6.193899822E+00  2.624833372E+01  1.182529863E+02  1.212893573E+02  5.109968665E-04  0.00000E+00  9.000E+00
      -2     1     1     2     0   511  3.074276245E-01 -7.436795819E+00  2.302511453E+00  7.791149003E+00  1.612264368E-07  0.00000E+00  9.000E+00
</event>
<event>
      6  10011  1.00000E+00  1.37881E+00 -1.00000E+00  4.75073E-01
       2    -1     0     0   501     0  0.000000000E+00  0.000000000E+00  5.058960988E+02  5.058960988E+02  0.000000000E+00  0.00000E+00  9.000E+00
      21    -1     0     0   511   501  0.000000000E+00  0.000000000E+00 -5.308756938E-01  5.308756938E-01  0.000000000E+00  0.00000E+00  9.000E+00
      23     2     1     2     0     0 -2.502874935E-01 -1.355901522E+00  4.994274679E+02  5.003312342E+02  3.002743938E+01  0.00000E+00  9.000E+00
      11     1     3     3     0     0 -3.845558461E+00 -9.787479727E+00  6.816539568E+01  6.897176414E+01  5.110140833E-04  0.00000E+00  9.000E+00
     -11     1     3     3     0     0  3.595270967E+00  8.431578205E+00  4.312620722E+02  4.313594701E+02  5.109614701E-04  0.00000E+00  9.000E+00
       2     1     1     2   511     0  2.502874935E-01  1.355901522E+00  5.937755175E+00  6.095740258E+00  1.115411887E-07  0.00000E+00  9.000E+00
</event>
<event>
      6  10011  1.00000E+00  5.46697E+00 -1.00000E+00  2.31852E-01
       3    -1     0     0   501     0  0.000000000E+00  0.000000000E+00  1.347213425E+01  1.347213425E+01  0.000000000E+00  0.00000E+00  9.000E+00
      -3    -1     0     0     0   511  0.000000000E+00  0.000000000E+00 -2.415264672E+02  2.415264672E+02  0.000000000E+00  0.00000E+00  9.000E+00
      23     2     1     2     0     0 -5.419697626E+00  7.173593123E-01 -2.028478606E+02  2.292060836E+02  1.065752621E+02  0.00000E+00  9.000E+00
      11     1     3     3     0     0 -1.864083147E+01  2.566021410E+01 -1.980470368E+02  2.005705760E+02  5.109830274E-04  0.00000E+00  9.000E+00
     -11     1     3     3     0     0  1.322113384E+01 -2.494285479E+01 -4.800823767E+00  2.863550758E+01  5.109988072E-04  0.00000E+00  9.000E+00
      21     1     1     2   501   511  5.419697626E+00 -7.173593123E-01 -2.520647241E+01  2.579251787E+01  1.460009660E-07  0.00000E+00  9.000E+00
</event>
<event>
      6  10011  1.00000E+00  8.09055E+00 -1.00000E+00  2.06968E-01
       2    -1     0     0   501     0  0.000000000E+00  0.000000000E+00  2.751740452E+02  2.751740452E+02  0.000000000E+00  0.00000E+00  9.000E+00
      -2    -1     0     0     0   511  0.000000000E+00  0.000000000E+00 -9.381831404E+00  9.381831404E+00  0.000000000E+00  0.00000E+00  9.000E+00
      23     2     1     2     0     0 -2.516691871E+00  7.689168806E+00  2.528223829E+02  2.692694915E+02  9.231167166E+01  0.00000E+00  9.000E+00
      11     1     3     3     0     0 -2.743259382E+01  2.835271913E+01  4.907330304E+01  6.296517257E+01  5.109987887E-04  0.00000E+00  9.000E+00
     -11     1     3     3     0     0  2.491590195E+01 -2.066355032E+01  2.037490798E+02  2.063043189E+02  5.109715275E-04  0.00000E+00  9.000E+00
      21     1     1     2   501   511  2.516691871E+00 -7.689168806E+00  1.296983093E+01  1.528638509E+01  2.317178479E-07  0.00000E+00  9.000E+00
</event>
<event>
      6  10011  1.00000E+00  3.29229E+00 -1.00000E+00  2.85002E-01
      21    -1     0     0   511   501  0.000000000E+00  0.000000000E+00  2.405199262E+01  2.405199262E+01  0.000000000E+00  0.00000E+00  9.000E+00
       4    -1     0     0   501     0  0.000000000E+00  0.000000000E+00 -9.938475434E+00  9.938475434E+00  0.000000000E+00  0.00000E+00  9.000E+00
      23     2     1     2     0     0 -6.968566299E-01 -3.217692942E+00  7.641216852E+00  2.672893732E+01  2.540095939E+01  0.00000E+00  9.000E+00
      11     1     3     3     0     0  5.223841471E+00 -4.091705499E+00  1.549422951E+01  1.685531732E+01  5.109988349E-04  0.00000E+00  9.000E+00
     -11     1     3     3     0     0 -5.920698101E+00  8.740125570E-01 -7.853012653E+00  9.873620002E+00  5.109988670E-04  0.00000E+00  9.000E+00
       4     1     1     2   511     0  6.968566299E-01  3.217692942E+00  6.472300333E+00  7.261530737E+00  7.102517771E-08  0.00000E+00  9.000E+00
</event>
<event>
      6  10011  1.00000E+00  1.63230E+00 -1.00000E+00  4.09701E-01
       2    -1     0     0   511     0  0.000000000E+00  0.000000000E+00  2.353241719E+02  2.353241719E+02  0.000000000E+00  0.00000E+00  9.000E+00
      -2    -1     0     0     0   501  0.000000000E+00  0.000000000E+00 -4.884428514E-01  4.884428514E-01  0.000000000E+00  0.00000E+00  9.000E+00
      23     2     1     2     0     0 -1.325779166E+00  9.522146458E-01  2.014326705E+02  2.023696974E+02  1.938322116E+01  0.00000E+00  9.000E+00
      11     1     3     3     0     0  6.208957318E+00 -6.400175420E+00  8.963268170E+01  9.007514099E+01  5.110017115E-04  0.00000E+00  9.000E+00
     -11     1     3     3     0     0 -7.534736484E+00  7.352390066E+00  1.117999888E+02  1.122945564E+02  5.110015847E-04  0.00000E+00  9.000E+00
      21     1     1     2   511   501  1.325779166E+00 -9.522146458E-01  3.340305854E+01  3.344291738E+01  3.013573351E-07  0.00000E+00  9.000E+00
</event>
<event>
      6  10011  1.00000E+00  1.09613E+02 -1.00000E+00  1.22039E-01
      -3    -1     0     0     0   501  0.000000000E+00  0.000000000E+00  7.231566147E+01  7.231566147E+01  0.000000000E+00  0.00000E+00  9.000E+00
      21    -1     0     0   501   511  0.000000000E+00  0.000000000E+00 -2.455537423E+02  2.455537423E+02  0.000000000E+00  0.00000E+00  9.000E+00
      23     2     1     2     0     0 -9.593234475E+01  5.302820988E+01 -4.413445584E+01  1.485095744E+02  8.995686570E+01  0.00000E+00  9.000E+00
      11     1     3     3     0     0 -1.124681715E+02  5.489003236E+01 -3.833616915E+01  1.308879945E+02  5.109993740E-04  0.00000E+00  9.000E+00
     -11     1     3     3     0     0  1.653582673E+01 -1.861822480E+00 -5.798286688E+00  1.762157988E+01  5.109986235E-04  0.00000E+00  9.000E+00
      -3     1     1     2     0   511  9.593234475E+01 -5.302820988E+01 -1.291036250E+02  1.693598293E+02  2.219422789E-06  0.00000E+00  9.000E+00
</event>
<event>
      6  10011  1.00000E+00  2.55351E+01 -1.00000E+00  1.58027E-01
      21    -1     0     0   511   501  0.000000000E+00  0.000000000E+00  1.303003391E+01  1.303003391E+01  0.000000000E+00  0.00000E+00  9.000E+00
       2    -1     0     0   501     0  0.000000000E+00  0.000000000E+00 -1.475759289E+02  1.475759289E+02  0.000000000E+00  0.00000E+00  9.000E+00
      23     2     1     2     0     0  2.307151156E+01  1.094299758E+01 -1.284789327E+02  1.343599751E+02  2.989519877E+01  0.00000E+00  9.000E+00
      11     1     3     3     0     0  8.263759014E+00  5.423534434E+00 -7.642291400E+00  1.249436100E+01  5.109989328E-04  0.00000E+00  9.000E+00
     -11     1     3     3     0     0  1.480775255E+01  5.519463148E+00 -1.208366413E+02  1.218656141E+02  5.110015012E-04  0.00000E+00  9.000E+00
       2     1     1     2   511     0 -2.307151156E+01 -1.094299758E+01 -6.066962293E+00  2.624598776E+01  2.424302608E-07  0.00000E+00  9.000E+00
</event>
<event>
      6  10011  1.00000E+00  4.88362E+00 -1.00000E+00  2.44495E-01
      -2    -1     0     0     0   511  0.000000000E+00  0.000000000E+00  1.335826870E+01  1.335826870E+01  0.000000000E+00  0.00000E+00  9.000E+00
       2    -1     0     0   501     0  0.000000000E+00  0.000000000E+00 -1.356918562E+01  1.356918562E+01  0.000000000E+00  0.00000E+00  9.000E+00
      23     2     1     2     0     0 -1.530884333E+00  4.637469501E+00 -3.624866152E+00  2.096886560E+01  2.006748463E+01  0.00000E+00  9.000E+00
      11     1     3     3     0     0  5.221485049E-01 -2.591403831E+00 -1.047322308E+01  1.080168574E+01  5.109989097E-04  0.00000E+00  9.000E+00
     -11     1     3     3     0     0 -2.053032838E+00  7.228873332E+00  6.848356924E+00  1.016717986E+01  5.109989331E-04  0.00000E+00  9.000E+00
      21     1     1     2   501   511  1.530884333E+00 -4.637469501E+00  3.413949237E+00  5.958588726E+00  6.524577695E-08  0.00000E+00  9.000E+00
</event>
<event>
      6  10011  1.00000E+00  8.69321E+00 -1.00000E+00  2.02998E-01
      -2    -1     0     0     0   511  0.000000000E+00  0.000000000E+00  3.910461664E+00  3.910461664E+00  0.000000000E+00  0.00000E+00  9.000E+00
       2    -1     0     0   501     0  0.000000000E+00  0.000000000E+00 -8.364059831E+02  8.364059831E+02  0.000000000E+00  0.00000E+00  9.000E+00
      23     2     1     2     0     0  3.617133202E+00 -7.904950302E+00 -8.204551073E+02  8.254657389E+02  9.039652166E+01  0.00000E+00  9.000E+00
      11     1     3     3     0     0  1.328237849E+01 -3.055389888E+01 -7.516289353E+02  7.523669442E+02  5.109737350E-04  0.00000E+00  9.000E+00
     -11     1     3     3     0     0 -9.665245292E+00  2.264894857E+01 -6.882617194E+01  7.309879467E+01  5.110301941E-04  0.00000E+00  9.000E+00
      21     1     1     2   501   511 -3.617133202E+00  7.904950302E+00 -1.204041415E+01  1.485070587E+01  3.685214125E-07  0.00000E+00  9.000E+00
</event>
<event>
      6  10011  1.00000E+00  2.54575E+01 -1.00000E+00  1.58126E-01
       5    -1     0     0   501     0  0.000000000E+00  0.000000000E+00  1.479230371E+02  1.479230371E+02  0.000000000E+00  0.00000E+00  9.000E+00
      21    -1     0     0   511   501  0.000000000E+00  0.000000000E+00 -4.258475582E+01  4.258475582E+01  0.000000000E+00  0.00000E+00  9.000E+00
      23     2     1     2     0     0  5.971067568E+00  2.474736567E+01  1.268020036E+02  1.572094876E+02  8.937555107E+01  0.00000E+00  9.000E+00
      11     1     3     3     0     0 -1.727271114E+01  4.255591866E+01  2.716751220E+01  5.336128262E+01  5.109980461E-04  0.00000E+00  9.000E+00
     -11     1     3     3     0     0  2.324377870E+01 -1.780855299E+01  9.963449140E+01  1.038482050E+02  5.109972698E-04  0.00000E+00  9.000E+00
       5     1     1     2   511     0 -5.971067568E+00 -2.474736567E+01 -2.146372234E+01  3.329830525E+01  3.484291718E-07  0.00000E+00  9.000E+00
</event>
<event>
      6  10011  1.00000E+00  3.48266E+00 -1.00000E+00  2.78377E-01
      -2    -1     0     0     0   501  0.000000000E+00  0.000000000E+00  2.318412413E+00  2.318412413E+00  0.000000000E+00  0.00000E+00  9.000E+00
       2    -1     0     0   511     0  0.000000000E+00  0.000000000E+00 -1.534687332E+02  1.534687332E+02  0.000000000E+00  0.00000E+00  9.000E+00
      23     2     1     2     0     0 -2.521865191E+00 -2.401893043E+00 -1.016570259E+02  1.061714714E+02  3.043191612E+01  0.00000E+00  9.000E+00
      11     1     3     3     0     0  5.335844874E+00 -2.546101664E+00 -2.053915270E+00  6.258789212E+00  5.109989694E-04  0.00000E+00  9.000E+00
     -11     1     3     3     0     0 -7.857710065E+00  1.442086211E-01 -9.960311065E+01  9.991268215E+01  5.109948972E-04  0.00000E+00  9.000E+00
      21     1     1     2   511   501  2.521865191E+00  2.401893043E+00 -4.949329484E+01  4.961567422E+01  4.693274423E-07  0.00000E+00  9.000E+00
</event>
<event>
      6  10011  1.00000E+00  3.33680E+00 -1.00000E+00  2.83389E-01
       2    -1     0     0   511     0  0.000000000E+00  0.000000000E+00  7.733670882E+02  7.733670882E+02  0.000000000E+00  0.00000E+00  9.000E+00
      -2    -1     0     0     0   501  0.000000000E+00  0.000000000E+00 -1.485291937E-01  1.485291937E-01  0.000000000E+00  0.00000E+00  9.000E+00
      23     2     1     2     0     0 -1.874324256E+00  2.760639885E+00  5.145472795E+02  5.148228169E+02  1.650744256E+01  0.00000E+00  9.000E+00
      11     1     3     3     0     0 -3.012162784E+00 -4.295529639E+00  4.090770905E+02  4.091107316E+02  5.109593841E-04  0.00000E+00  9.000E+00
     -11     1     3     3     0     0  1.137838528E+00  7.056169524E+00  1.054701890E+02  1.057120853E+02  5.110022043E-04  0.00000E+00  9.000E+00
      21     1     1     2   511   501  1.874324256E+00 -2.760639885E+00  2.586712795E+02  2.586928005E+02  9.973764736E-07  0.00000E+00  9.000E+00
</event>
<event>
      6  10011  1.00000E+00  3.15624E+01 -1.00000E+00  1.51490E-01
      21    -1     0     0   511   501  0.000000000E+00  0.000000000E+00  1.138214324E+01  1.138214324E+01  0.000000000E+00  0.00000E+00  9.000E+00
       4    -1     0     0   501     0  0.000000000E+00  0.000000000E+00 -5.258714469E+02  5.258714469E+02  0.000000000E+00  0.00000E+00  9.000E+00
      23     2     1     2     0     0  8.870820226E+00  3.029011701E+01 -4.850512277E+02  4.940936207E+02  8.864327359E+01  0.00000E+00  9.000E+00
      11     1     3     3     0     0  2.644272788E+01  5.046770546E+01 -4.185725241E+02  4.224324385E+02  5.109762936E-04  0.00000E+00  9.000E+00
     -11     1     3     3     0     0 -1.757190765E+01 -2.017758845E+01 -6.647870360E+01  7.166118229E+01  5.109966067E-04  0.00000E+00  9.000E+00
       4     1     1     2   511     0 -8.870820226E+00 -3.029011701E+01 -2.943807600E+01  4.315996940E+01  4.379395249E-07  0.00000E+00  9.000E+00
</event>
<event>
      6  10011  1.00000E+00  4.03523E+01 -1.00000E+00  1.44573E-01
      -2    -1     0     0     0   501  0.000000000E+00  0.000000000E+00  6.866556005E+00  6.866556005E+00  0.000000000E+00  0.00000E+00  9.000E+00
       2    -1     0     0   511     0  0.000000000E+00  0.000000000E+00 -9.049414128E+02  9.049414128E+02  0.000000000E+00  0.00000E+00  9.000E+00
      23     2     1     2     0     0  2.272360626E+01 -3.334585736E+01 -4.049490317E+02  4.170338912E+02  9.113308762E+01  0.00000E+00  9.000E+00
      11     1     3     3     0     0  1.002467773E-01  1.861740444E+01 -2.703425906E+02  2.709829037E+02  5.110014065E-04  0.00000E+00  9.000E+00
     -11     1     3     3     0     0  2.262335948E+01 -5.196326181E+01 -1.346064411E+02  1.460509876E+02  5.110189055E-04  0.00000E+00  9.000E+00
      21     1     1     2   511   501 -2.272360626E+01  3.334585736E+01 -4.931258251E+02  4.947740776E+02  4.417182759E-06  0.00000E+00  9.000E+00
</event>
<event>
      6  10011  1.00000E+00  1.42443E+00 -1.00000E+00  4.62676E-01
      -2    -1     0     0     0   511  0.000000000E+00  0.000000000E+00  1.296395014E-01  1.296395014E-01  0.000000000E+00  0.00000E+00  9.000E+00
       2    -1     0     0   501     0  0.000000000E+00  0.000000000E+00 -7.661475081E+02  7.661475081E+02  0.000000000E+00  0.00000E+00  9.000E+00
      23     2     1     2     0     0  6.880713461E-01  1.247220943E+00 -7.334337872E+02  7.336619462E+02  1.824012292E+01  0.00000E+00  9.000E+00
      11     1     3     3     0     0  7.642861331E+00  1.002558328E+00 -5.978425734E+02  5.978922654E+02  5.109912002E-04  0.00000E+00  9.000E+00
     -11     1     3     3     0     0 -6.954789985E+00  2.446626150E-01 -1.355912139E+02  1.357696809E+02  5.110184363E-04  0.00000E+00  9.000E+00
      21     1     1     2   501   511 -6.880713461E-01 -1.247220943E+00 -3.258408136E+01  3.261520137E+01  4.753213497E-07  0.00000E+00  9.000E+00
</event>
<event>
      6  10011  1.00000E+00  6.77285E+00 -1.00000E+00  2.17526E-01
       2    -1     0     0   501     0  0.000000000E+00  0.000000000E+00  6.145071295E+02  6.145071295E+02  0.000000000E+00  0.00000E+00  9.000E+00
      21    -1     0     0   511   501  0.000000000E+00  0.000000000E+00 -4.220962424E-01  4.220962424E-01  0.000000000E+00  0.00000E+00  9.000E+00
      23     2     1     2     0     0  3.852904807E+00 -5.570152181E+00  5.532467007E+02  5.537150593E+02  2.173898654E+01  0.00000E+00  9.000E+00
      11     1     3     3     0     0 -4.085443433E+00 -6.070846851E+00  6.616390491E+01  6.656732188E+01  5.110033932E-04  0.00000E+00  9.000E+00
     -11     1     3     3     0     0  7.938348239E+00  5.006946695E-01  4.870827958E+02  4.871477374E+02  5.110151583E-04  0.00000E+00  9.000E+00
       2     1     1     2   511     0 -3.852904807E+00  5.570152181E+00  6.083833254E+01  6.121416648E+01  6.469575568E-07  0.00000E+00  9.000E+00
</event>
<event>
      6  10011  1.00000E+00  1.77087E+01 -1.00000E+00  1.70806E-01
      -5    -1     0     0     0   501  0.000000000E+00  0.000000000E+00  1.212211056E+02  1.212211056E+02  0.000000000E+00  0.00000E+00  9.000E+00
      21    -1     0     0   501   511  0.000000000E+00  0.000000000E+00 -3.804932822E+01  3.804932822E+01  0.000000000E+00  0.00000E+00  9.000E+00
      23     2     1     2     0     0 -2.656405328E+00  1.750835961E+01  9.822687644E+01  1.360270443E+02  9.241882049E+01  0.00000E+00  9.000E+00
      11     1     3     3     0     0  1.965948920E+01  1.582319771E+01  1.085043959E+02  1.114005073E+02  5.109952675E-04  0.00000E+00  9.000E+00
     -11     1     3     3     0     0 -2.231589453E+01  1.685161899E+00 -1.027751943E+01  2.462653701E+01  5.109989011E-04  0.00000E+00  9.000E+00
      -5     1     1     2     0   511  2.656405328E+00 -1.750835961E+01 -1.505509910E+01  2.324338948E+01  2.982094302E-07  0.00000E+00  9.000E+00
</event>
<event>
      6  10011  1.00000E+00  5.15936E+00 -1.00000E+00  2.36073E-01
      21    -1     0     0   511   501  0.000000000E+00  0.000000000E+00  1.203527146E+00  1.203527146E+00  0.000000000E+00  0.00000E+00  9.000E+00
       2    -1     0     0   501     0  0.000000000E+00  0.000000000E+00 -3.100507886E+02  3.100507886E+02  0.000000000E+00  0.00000E+00  9.000E+00
      23     2     1     2     0     0 -2.632699303E+00  4.437101255E+00 -3.022301155E+02  3.028635116E+02  1.888504666E+01  0.00000E+00  9.000E+00
      11     1     3     3     0     0 -1.074855064E+00 -7.363395589E+00 -1.397586754E+02  1.399566442E+02  5.109921110E-04  0.00000E+00  9.000E+00
     -11     1     3     3     0     0 -1.557844239E+00  1.180049684E+01 -1.624714401E+02  1.629068674E+02  5.109932373E-04  0.00000E+00  9.000E+00
       2     1     1     2   511     0  2.632699303E+00 -4.437101255E+00 -6.617145952E+00  8.390804116E+00  2.489193707E-07  0.00000E+00  9.000E+00
</event>
<event>
      6  10011  1.00000E+00  2.49597E+00 -1.00000E+00  3.23253E-01
       2    -1     0     0   501     0  0.000000000E+00  0.000000000E+00  8.651199618E+01  8.651199618E+01  0.000000000E+00  0.00000E+00  9.000E+00
      -2    -1     0     0     0   511  0.000000000E+00  0.000000000E+00 -3.189898565E+01  3.189898565E+01  0.000000000E+00  0.00000E+00  9.000E+00
      23     2     1     2     0     0  1.367963379E+00 -2.087709737E+00  6.069029162E+01  1.118411111E+02  9.390896006E+01  0.00000E+00  9.000E+00
      11     1     3     3     0     0  8.866517016E+00  2.581429163E+01 -1.477302187E+01  3.103602667E+01  5.109989822E-04  0.00000E+00  9.000E+00
     -11     1     3     3     0     0 -7.498553638E+00 -2.790200137E+01  7.546331349E+01  8.080508443E+01  5.109996914E-04  0.00000E+00  9.000E+00
      21     1     1     2   501   511 -1.367963379E+00  2.087709737E+00 -6.077281096E+00  6.569870719E+00  7.856300737E-08  0.00000E+00  9.000E+00
</event>
<event>
      6  10011  1.00000E+00  2.80224E+01 -1.00000E+00  1.55090E-01
       3    -1     0     0   501     0  0.000000000E+00  0.000000000E+00  1.063456125E+02  1.063456125E+02  0.000000000E+00  0.00000E+00  9.000E+00
      -3    -1     0     0     0   511  0.000000000E+00  0.000000000E+00 -3.406523857E+01  3.406523857E+01  0.000000000E+00  0.00000E+00  9.000E+00
      23     2     1     2     0     0 -1.489735725E+01  2.373444929E+01  6.958615717E+01  1.122592235E+02  8.351433795E+01  0.00000E+00  9.000E+00
      11     1     3     3     0     0 -1.186138185E+01 -1.319665233E+00 -1.772799174E+01  2.137090516E+01  5.109991003E-04  0.00000E+00  9.000E+00
     -11     1     3     3     0     0 -3.035975400E+00  2.505411452E+01  8.731414891E+01  9.088831829E+01  5.109986412E-04  0.00000E+00  9.000E+00
      21     1     1     2   501   511  1.489735725E+01 -2.373444929E+01  2.694216800E+00  2.815162767E+01  2.766020207E-07  0.00000E+00  9.000E+00
</event>
<event>
      6  10011  1.00000E+00  7.55092E+00 -1.00000E+00  2.10938E-01
       3    -1     0     0   511     0  0.000000000E+00  0.000000000E+00  1.635261534E+02  1.635261534E+02  0.000000000E+00  0.00000E+00  9.000E+00
      -3    -1     0     0     0   501  0.000000000E+00  0.000000000E+00 -4.311884415E+01  4.311884415E+01  0.000000000E+00  0.00000E+00  9.000E+00
      23     2     1     2     0     0  6.282551840E+00  4.188794311E+00  7.163677691E+00  9.314990274E+01  9.256656874E+01  0.00000E+00  9.000E+00
      11     1     3     3     0     0 -4.095731094E+01 -1.240993782E+01  3.860616281E+00  4.296989917E+01  5.109991867E-04  0.00000E+00  9.000E+00
     -11     1     3     3     0     0  4.723986278E+01  1.659873213E+01  3.303061410E+00  5.018000358E+01  5.109991247E-04  0.00000E+00  9.000E+00
      21     1     1     2   511   501 -6.282551840E+00 -4.188794311E+00  1.132436316E+02  1.134950948E+02  9.857318049E-07  0.00000E+00  9.000E+00
</event>
<event>
      6  10011  1.00000E+00  1.93022E+00 -1.00000E+00  3.70200E-01
       1    -1     0     0   511     0  0.000000000E+00  0.000000000E+00  3.974761621E+01  3.974761621E+01  0.000000000E+00  0.00000E+00  9.000E+00
      -1    -1     0     0     0   501  0.000000000E+00  0.000000000E+00 -2.549999217E+00  2.549999217E+00  0.000000000E+00  0.00000E+00  9.000E+00
      23     2     1     2     0     0  1.884649314E+00  4.169516094E-01  3.334336517E+01  3.798704600E+01  1.809723490E+01  0.00000E+00  9.000E+00
      11     1     3     3     0     0  4.055656385E+00 -8.119374923E-01 -3.964872027E-01  4.155092486E+00  5.109989208E-04  0.00000E+00  9.000E+00
     -11     1     3     3     0     0 -2.171007071E+00  1.228889102E+00  3.373985237E+01  3.383195351E+01  5.109991074E-04  0.00000E+00  9.000E+00
      21     1     1     2   511   501 -1.884649314E+00 -4.169516094E-01  3.854251824E+00  4.310569429E+00  5.901234937E-08  0.00000E+00  9.000E+00
</event>
<event>
      6  10011  1.00000E+00  5.32958E+00 -1.00000E+00  2.33688E-01
       2    -1     0     0   501     0  0.000000000E+00  0.000000000E+00  3.778439127E+02  3.778439127E+02  0.000000000E+00  0.00000E+00  9.000E+00
      21    -1     0     0   511   501  0.000000000E+00  0.000000000E+00 -4.334090381E-01  4.334090381E-01  0.000000000E+00  0.00000E+00  9.000E+00
      23     2     1     2     0     0  4.096248383E+00  3.409562890E+00  2.848024577E+02  2.855160446E+02  1.945680883E+01  0.00000E+00  9.000E+00
      11     1     3     3     0     0  3.937620443E+00 -6.197106410E+00  2.058831282E+02  2.060140079E+02  5.109924482E-04  0.00000E+00  9.000E+00
     -11     1     3     3     0     0  1.586279402E-01  9.606669300E+00  7.891932950E+01  7.950203662E+01  5.109983118E-04  0.00000E+00  9.000E+00
       2     1     1     2   511     0 -4.096248383E+00 -3.409562890E+00  9.260804596E+01  9.276127719E+01  1.310285803E-06  0.00000E+00  9.000E+00
</event>
<event>
      6  10011  1.00000E+00  2.22678E+01 -1.00000E+00  1.62570E-01
      -1    -1     0     0     0   511  0.000000000E+00  0.000000000E+00  2.415611046E+00  2.415611046E+00  0.000000000E+00  0.00000E+00  9.000E+00
       1    -1     0     0   501     0  0.000000000E+00  0.000000000E+00 -2.041244440E+03  2.041244440E+03  0.000000000E+00  0.00000E+00  9.000E+00
      23     2     1     2     0     0  1.878738134E+01 -1.195355257E+01 -1.937961423E+03  1.940363940E+03  9.392489962E+01  0.00000E+00  9.000E+00
      11     1     3     3     0     0  1.326094528E+00 -1.710364981E+01 -6.242813847E+01  6.474230330E+01  5.110104570E-04  0.00000E+00  9.000E+00
     -11     1     3     3     0     0  1.746128681E+01  5.150097238E+00 -1.875533285E+03  1.875621636E+03  5.092029234E-04  0.00000E+00  9.000E+00
      21     1     1     2   501   511 -1.878738134E+01  1.195355257E+01 -1.008674055E+02  1.032961113E+02  1.613459311E-06  0.00000E+00  9.000E+00
</event>
<event>
      6  10011  1.00000E+00  6.66397E+00 -1.00000E+00  2.18545E-01
      -1    -1     0     0     0   511  0.000000000E+00  0.000000000E+00  1.211530082E+02  1.211530082E+02  0.000000000E+00  0.00000E+00  9.000E+00
       1    -1     0     0   501     0  0.000000000E+00  0.000000000E+00 -1.995812282E+01  1.995812282E+01  0.000000000E+00  0.00000E+00  9.000E+00
      23     2     1     2     0     0 -1.891528355E+00  6.389880020E+00  9.400289668E+01  1.313063797E+02  9.143529039E+01  0.00000E+00  9.000E+00
      11     1     3     3     0     0  1.384670075E+01 -4.011124514E+01  3.982945052E+01  5.819818070E+01  5.109983032E-04  0.00000E+00  9.000E+00
     -11     1     3     3     0     0 -1.573822911E+01  4.650112516E+01  5.417344616E+01  7.310819903E+01  5.109969132E-04  0.00000E+00  9.000E+00
      21     1     1     2   501   511  1.891528355E+00 -6.389880020E+00  7.191988654E+00  9.804751246E+00  1.399217251E-07  0.00000E+00  9.000E+00
</event>
<event>
      6  10011  1.00000E+00  3.16258E+00 -1.00000E+00  2.89949E-01
      21    -1     0     0   511   501  0.000000000E+00  0.000000000E+00  2.476131823E-01  2.476131823E-01  0.000000000E+00  0.00000E+00  9.000E+00
       2    -1     0     0   501     0  0.000000000E+00  0.000000000E+00 -4.506443303E+02  4.506443303E+02  0.000000000E+00  0.00000E+00  9.000E+00
      23     2     1     2     0     0  2.044218037E-01  3.155969417E+00 -3.543274325E+02  3.547706172E+02  1.744303389E+01  0.00000E+00  9.000E+00
      11     1     3     3     0     0  4.049319185E-01  8.854789004E-02 -3.438822298E+02  3.438824796E+02  5.110067112E-04  0.00000E+00  9.000E+00
     -11     1     3     3     0     0 -2.005101148E-01  3.067421527E+00 -1.044520272E+01  1.088813755E+01  5.109982530E-04  0.00000E+00  9.000E+00
       2     1     1     2   511     0 -2.044218037E-01 -3.155969417E+00 -9.606928464E+01  9.612132637E+01  1.753785012E-06  0.00000E+00  9.000E+00
</event>
<event>
      5  10011  1.00000E+00  8.94427E-01 -1.00000E+00  6.45460E-01
       2    -1     0     0   501     0  0.000000000E+00  0.000000000E+00  2.949141579E+02  2.949141579E+02  0.000000000E+00  0.00000E+00  9.000E+00
      -2    -1     0     0     0   501  0.000000000E+00  0.000000000E+00 -5.028973428E-01  5.028973428E-01  0.000000000E+00  0.00000E+00  9.000E+00
      23     2     1     2     0     0  0.000000000E+00  0.000000000E+00  2.944112605E+02  2.954170552E+02  2.435664561E+01  0.00000E+00  9.000E+00
      11     1     3     3     0     0  5.566254807E+00  8.103792348E+00  2.343786861E+02  2.345847888E+02  5.109842545E-04  0.00000E+00  9.000E+00
     -11     1     3     3     0     0 -5.566254807E+00 -8.103792348E+00  6.003257440E+01  6.083226637E+01  5.109976943E-04  0.00000E+00  9.000E+00
</event>
<event>
      6  10011  1.00000E+00  1.68699E+01 -1.00000E+00  1.72663E-01
      -2    -1     0     0     0   501  0.000000000E+00  0.000000000E+00  5.458875374E+01  5.458875374E+01  0.000000000E+00  0.00000E+00  9.000E+00
      21    -1     0     0   501   511  0.000000000E+00  0.000000000E+00 -5.846495766E+01  5.846495766E+01  0.000000000E+00  0.00000E+00  9.000E+00
      23     2     1     2     0     0  1.343761891E+01 -1.019929349E+01 -1.496028164E+01  9.286827189E+01  9.008945947E+01  0.00000E+00  9.000E+00
      11     1     3     3     0     0  3.178788835E+01 -3.370427274E+01 -3.401910019E+01  5.747823088E+01  5.109987372E-04  0.00000E+00  9.000E+00
     -11     1     3     3     0     0 -1.835026944E+01  2.350497925E+01  1.905881855E+01  3.539004101E+01  5.109991205E-04  0.00000E+00  9.000E+00
      -2     1     1     2     0   511 -1.343761891E+01  1.019929349E+01  1.108407772E+01  2.018543952E+01  3.308489857E-07  0.00000E+00  9.000E+00
</event>
<event>
      6  10011  1.00000E+00  2.21688E+00 -1.00000E+00  3.43228E-01
       2    -1     0     0   501     0  0.000000000E+00  0.000000000E+00  7.574565100E+02  7.574565100E+02  0.000000000E+00  0.00000E+00  9.000E+00
      -2    -1     0     0     0   511  0.000000000E+00  0.000000000E+00 -1.366419958E-01  1.366419958E-01  0.000000000E+00  0.00000E+00  9.000E+00
      23     2     1     2     0     0 -1.776190047E+00 -1.326530700E+00  7.267951733E+02  7.269880622E+02  1.659831651E+01  0.00000E+00  9.000E+00
      11     1     3     3     0     0  2.981699622E+00 -7.103521725E+00  5.208074839E+02  5.208644601E+02  5.109670324E-04  0.00000E+00  9.000E+00
     -11     1     3     3     0     0 -4.757889669E+00  5.776991025E+00  2.059876894E+02  2.061236020E+02  5.110481005E-04  0.00000E+00  9.000E+00
      21     1     1     2   501   511  1.776190047E+00  1.326530700E+00  3.052469479E+01  3.060508988E+01  9.746031545E-07  0.00000E+00  9.000E+00
</event>
<event>
      6  10011  1.00000E+00  2.03701E+01 -1.00000E+00  1.65673E-01
       4    -1     0     0   501     0  0.000000000E+00  0.000000000E+00  1.985880036E+02  1.985880036E+02  0.000000000E+00  0.00000E+00  9.000E+00
      21    -1     0     0   511   501  0.000000000E+00  0.000000000E+00 -2.015982638E+01  2.015982638E+01  0.000000000E+00  0.00000E+00  9.000E+00
      23     2     1     2     0     0 -1.351368018E+01  1.524211030E+01  1.748747066E+02  1.980700972E+02  9.075053120E+01  0.00000E+00  9.000E+00
      11     1     3     3     0     0 -4.525465850E+01  1.477258621E+01  1.510662192E+02  1.583894441E+02  5.109991487E-04  0.00000E+00  9.000E+00
     -11     1     3     3     0     0  3.174097832E+01  4.695240892E-01  2.380848744E+01  3.968065312E+01  5.109987671E-04  0.00000E+00  9.000E+00
       4     1     1     2   511     0  1.351368018E+01 -1.524211030E+01  3.553470573E+00  2.067773274E+01  1.574072915E-07  0.00000E+00  9.000E+00
</event>
<event>
      6  10011  1.00000E+00  1.28398E+01 -1.00000E+00  1.83940E-01
       5    -1     0     0   501     0  0.000000000E+00  0.000000000E+00  2.409727283E+01  2.409727283E+01  0.000000000E+00  0.00000E+00  9.000E+00
      21    -1     0     0   511   501  0.000000000E+00  0.000000000E+00 -1.826397345E+01  1.826397345E+01  0.000000000E+00  0.00000E+00  9.000E+00
      23     2     1     2     0     0  7.194858678E+00  1.063464292E+01  1.566121710E+01  2.619184344E+01  1.660955508E+01  0.00000E+00  9.000E+00
      11     1     3     3     0     0  1.050138841E+01  3.892497534E+00  3.208378472E+00  1.165008104E+01  5.109989556E-04  0.00000E+00  9.000E+00
     -11     1     3     3     0     0 -3.306529733E+00  6.742145390E+00  1.245283863E+01  1.454176239E+01  5.109989632E-04  0.00000E+00  9.000E+00
       5     1     1     2   511     0 -7.194858678E+00 -1.063464292E+01 -9.827917729E+00  1.616940285E+01  1.177745682E-07  0.00000E+00  9.000E+00
</event>
<event>
      6  10011  1.00000E+00  1.76676E+00 -1.00000E+00  3.89973E-01
       2    -1     0     0   501     0  0.000000000E+00  0.000000000E+00  1.660131504E+02  1.660131504E+02  0.000000000E+00  0.00000E+00  9.000E+00
      21    -1     0     0   511   501  0.000000000E+00  0.000000000E+00 -8.986966498E-01  8.986966498E-01  0.000000000E+00  0.00000E+00  9.000E+00
      23     2     1     2     0     0 -8.568663680E-01 -1.545061756E+00  1.620973023E+02  1.634154719E+02  2.063878957E+01  0.00000E+00  9.000E+00
      11     1     3     3     0     0 -5.417429721E+00 -5.840674499E+00  2.645135835E+01  2.762492321E+01  5.109985775E-04  0.00000E+00  9.000E+00
     -11     1     3     3     0     0  4.560563353E+00  4.295612744E+00  1.356459439E+02  1.357905487E+02  5.109961244E-04  0.00000E+00  9.000E+00
       2     1     1     2   511     0  8.568663680E-01  1.545061756E+00  3.017151532E+00  3.496375147E+00  8.531138461E-08  0.00000E+00  9.000E+00
</event>
<event>
      6  10011  1.00000E+00  1.80731E+00 -1.00000E+00  3.84687E-01
      -2    -1     0     0     0   501  0.000000000E+00  0.000000000E+00  5.335110169E-01  5.335110169E-01  0.000000000E+00  0.00000E+00  9.000E+00
       2    -1     0     0   511     0  0.000000000E+00  0.000000000E+00 -3.303073140E+02  3.303073140E+02  0.000000000E+00  0.00000E+00  9.000E+00
      23     2     1     2     0     0  1.790880130E+00  2.431666175E-01 -3.049371536E+02  3.059385051E+02  2.466647345E+01  0.00000E+00  9.000E+00
      11     1     3     3     0     0  6.768658760E+00 -8.232898307E+00 -7.105698927E+01  7.185186901E+01  5.110058183E-04  0.00000E+00  9.000E+00
     -11     1     3     3     0     0 -4.977778631E+00  8.476064925E+00 -2.338801643E+02  2.340866361E+02  5.110037947E-04  0.00000E+00  9.000E+00
      21     1     1     2   511   501 -1.790880130E+00 -2.431666175E-01 -2.483664939E+01  2.490231986E+01  1.667665637E-07  0.00000E+00  9.000E+00
</event>
<event>
      6  10011  1.00000E+00  7.29013E+00 -1.00000E+00  2.13021E-01
      21    -1     0     0   511   501  0.000000000E+00  0.000000000E+00  5.912933759E+00  5.912933759E+00  0.000000000E+00  0.00000E+00  9.000E+00
       2    -1     0     0   501     0  0.000000000E+00  0.000000000E+00 -5.659633460E+01  5.659633460E+01  0.000000000E+00  0.00000E+00  9.000E+00
      23     2     1     2     0     0  6.541573414E+00  3.217735723E+00 -5.166002550E+01  5.515401163E+01  1.789024197E+01  0.00000E+00  9.000E+00
      11     1     3     3     0     0 -4.700355009E+00 -5.435018097E-01 -3.079650657E+01  3.115788101E+01  5.109984019E-04  0.00000E+00  9.000E+00
     -11     1     3     3     0     0  1.124192842E+01  3.761237533E+00 -2.086351893E+01  2.399613062E+01  5.109989375E-04  0.00000E+00  9.000E+00
       2     1     1     2   511     0 -6.541573414E+00 -3.217735723E+00  9.766246578E-01  7.355256735E+00  1.968348664E-08  0.00000E+00  9.000E+00
</event>
<event>
      6  10011  1.00000E+00  3.17117E+01 -1.00000E+00  1.51350E-01
      -2    -1     0     0     0   501  0.000000000E+00  0.000000000E+00  1.126955788E+01  1.126955788E+01  0.000000000E+00  0.00000E+00  9.000E+00
       2    -1     0     0   511     0  0.000000000E+00  0.000000000E+00 -3.683719995E+02  3.683719995E+02  0.000000000E+00  0.00000E+00  9.000E+00
      23     2     1     2     0     0 -2.351740116E+01 -2.127353497E+01 -2.605001033E+02  2.779673560E+02  9.165105432E+01  0.00000E+00  9.000E+00
      11     1     3     3     0     0 -2.969711402E+01  2.638707365E+00 -1.932153931E+01  3.552749976E+01  5.109988096E-04  0.00000E+00  9.000E+00
     -11     1     3     3     0     0  6.179712867E+00 -2.391224234E+01 -2.411785640E+02  2.424398563E+02  5.109940056E-04  0.00000E+00  9.000E+00
      21     1     1     2   511   501  2.351740116E+01  2.127353497E+01 -9.660233837E+01  1.016742014E+02  1.061230529E-06  0.00000E+00  9.000E+00
</event>
<event>
      6  10011  1.00000E+00  2.85593E+00 -1.00000E+00  3.03362E-01
      -1    -1     0     0     0   501  0.000000000E+00  0.000000000E+00  1.909058151E+01  1.909058151E+01  0.000000000E+00  0.00000E+00  9.000E+00
       1    -1     0     0   511     0  0.000000000E+00  0.000000000E+00 -2.198767440E+01  2.198767440E+01  0.000000000E+00  0.00000E+00  9.000E+00
      23     2     1     2     0     0  2.741510699E+00  8.002777136E-01  1.049741408E+01  2.738266748E+01  2.512883704E+01  0.00000E+00  9.000E+00
      11     1     3     3     0     0  7.784742122E+00  5.918458962E+00 -4.490927162E+00  1.076098478E+01  5.109989342E-04  0.00000E+00  9.000E+00
     -11     1     3     3     0     0 -5.043231423E+00 -5.118181249E+00  1.498834124E+01  1.662168270E+01  5.109989724E-04  0.00000E+00  9.000E+00
      21     1     1     2   511   501 -2.741510699E+00 -8.002777136E-01 -1.339450697E+01  1.369558842E+01  9.275898038E-08  0.00000E+00  9.000E+00
</event>
<event>
      6  10011  1.00000E+00  3.31435E+00 -1.00000E+00  2.84198E-01
       2    -1     0     0   501     0  0.000000000E+00  0.000000000E+00  1.259688296E+03  1.259688296E+03  0.000000000E+00  0.00000E+00  9.000E+00
      -2    -1     0     0     0   511  0.000000000E+00  0.000000000E+00 -2.392024490E+00  2.392024490E+00  0.000000000E+00  0.00000E+00  9.000E+00
      23     2     1     2     0     0  3.244782334E+00 -6.754959998E-01  1.225477974E+03  1.230089869E+03  1.063665221E+02  0.00000E+00  9.000E+00
      11     1     3     3     0     0  1.851002091E+01  3.424632700E+01  1.040420786E+03  1.041148810E+03  5.113913460E-04  0.00000E+00  9.000E+00
     -11     1     3     3     0     0 -1.526523857E+01 -3.492182300E+01  1.850571877E+02  1.889410594E+02  5.110099162E-04  0.00000E+00  9.000E+00
      21     1     1     2   501   511 -3.244782334E+00  6.754959998E-01  3.181829776E+01  3.199045138E+01  1.666000469E-07  0.00000E+00  9.000E+00
</event>
<event>
      6  10011  1.00000E+00  1.29886E+01 -1.00000E+00  1.83433E-01
      21    -1     0     0   501   511  0.000000000E+00  0.000000000E+00  1.130637407E+00  1.130637407E+00  0.000000000E+00  0.00000E+00  9.000E+00
      -3    -1     0     0     0   501  0.000000000E+00  0.000000000E+00 -3.009167215E+02  3.009167215E+02  0.000000000E+00  0.00000E+00  9.000E+00
      23     2     1     2     0     0  1.155979137E+01 -5.922513500E+00 -2.111458428E+02  2.124605445E+02  1.970307301E+01  0.00000E+00  9.000E+00
      11     1     3     3     0     0  5.902764441E+00  5.173348910E+00 -1.409488285E+02  1.411672003E+02  5.110077871E-04  0.00000E+00  9.000E+00
     -11     1     3     3     0     0  5.657026934E+00 -1.109586241E+01 -7.019701425E+01  7.129334420E+01  5.109981380E-04  0.00000E+00  9.000E+00
      -3     1     1     2     0   511 -1.155979137E+01  5.922513500E+00 -8.864024130E+01  8.958681444E+01  1.195255198E-06  0.00000E+00  9.000E+00
</event>
<event>
      6  10011  1.00000E+00  1.39351E+01 -1.00000E+00  1.80401E-01
       2    -1     0     0   501     0  0.000000000E+00  0.000000000E+00  2.032750739E+02  2.032750739E+02  0.000000000E+00  0.00000E+00  9.000E+00
      21    -1     0     0   511   501  0.000000000E+00  0.000000000E+00 -1.552290606E+00  1.552290606E+00  0.000000000E+00  0.00000E+00  9.000E+00
      23     2     1     2     0     0  4.039214840E+00 -1.333688539E+01  1.265878449E+02  1.284110918E+02  1.645412561E+01  0.00000E+00  9.000E+00
      11     1     3     3     0     0  3.566307659E+00 -1.695287655E+01  9.079525470E+01  9.243320210E+01  5.110014552E-04  0.00000E+00  9.000E+00
     -11     1     3     3     0     0  4.729071806E-01  3.615991156E+00  3.579259019E+01  3.597788968E+01  5.109992678E-04  0.00000E+00  9.000E+00
       2     1     1     2   511     0 -4.039214840E+00  1.333688539E+01  7.513493840E+01  7.641627273E+01  1.440719600E-06  0.00000E+00  9.000E+00
</event>
<event>
      6  10011  1.00000E+00  4.17415E+00 -1.00000E+00  2.59080E-01
      21    -1     0     0   511   501  0.000000000E+00  0.000000000E+00  6.163686539E+00  6.163686539E+00  0.000000000E+00  0.00000E+00  9.000E+00
       2    -1     0     0   501     0  0.000000000E+00  0.000000000E+00 -4.485612617E+02  4.485612617E+02  0.000000000E+00  0.00000E+00  9.000E+00
      23     2     1     2     0     0 -2.226791694E+00 -3.530570934E+00 -4.409394900E+02  4.503034616E+02  9.125869889E+01  0.00000E+00  9.000E+00
      11     1     3     3     0     0  2.820710554E+01  2.955427899E+01 -1.340019790E+02  1.400914936E+02  5.110012118E-04  0.00000E+00  9.000E+00
     -11     1     3     3     0     0 -3.043389723E+01 -3.308484992E+01 -3.069375110E+02  3.102119679E+02  5.110047576E-04  0.00000E+00  9.000E+00
       2     1     1     2   511     0  2.226791694E+00  3.530570934E+00 -1.458085211E+00  4.421486725E+00  1.805619280E-07  0.00000E+00  9.000E+00
</event>
<event>
      6  10011  1.00000E+00  6.61482E+00 -1.00000E+00  2.19013E-01
       1    -1     0     0   511     0  0.000000000E+00  0.000000000E+00  1.624542690E+02  1.624542690E+02  0.000000000E+00  0.00000E+00  9.000E+00
      -1    -1     0     0     0   501  0.000000000E+00  0.000000000E+00 -1.903964578E+01  1.903964578E+01  0.000000000E+00  0.00000E+00  9.000E+00
      23     2     1     2     0     0 -4.669487655E+00 -4.685262893E+00  9.575131909E+01  1.333737905E+02  9.260937896E+01  0.00000E+00  9.000E+00
      11     1     3     3     0     0  4.713181221E+00  1.423881757E+01 -1.465229007E+01  2.096777545E+01  5.109991607E-04  0.00000E+00  9.000E+00
     -11     1     3     3     0     0 -9.382668876E+00 -1.892408046E+01  1.104036092E+02  1.124060150E+02  5.110010424E-04  0.00000E+00  9.000E+00
      21     1     1     2   511   501  4.669487655E+00  4.685262893E+00  4.766330413E+01  4.812012431E+01  4.583166986E-07  0.00000E+00  9.000E+00
</event>
<event>
      6  10011  1.00000E+00  1.30597E+01 -1.00000E+00  1.83194E-01
      21    -1     0     0   511   501  0.000000000E+00  0.000000000E+00  5.409761539E+01  5.409761539E+01  0.000000000E+00  0.00000E+00  9.000E+00
       3    -1     0     0   501     0  0.000000000E+00  0.000000000E+00 -5.798945832E+01  5.798945832E+01  0.000000000E+00  0.00000E+00  9.000E+00
      23     2     1     2     0     0  7.128392233E+00 -1.094268271E+01  1.055163447E+01  9.261477748E+01  9.108020497E+01  0.00000E+00  9.000E+00
      11     1     3     3     0     0 -2.243637406E+01 -3.145408283E+01 -2.168302748E+01  4.430467118E+01  5.109986464E-04  0.00000E+00  9.000E+00
     -11     1     3     3     0     0  2.956476629E+01  2.051140011E+01  3.223466194E+01  4.831010631E+01  5.109979695E-04  0.00000E+00  9.000E+00
       3     1     1     2   511     0 -7.128392233E+00  1.094268271E+01 -1.444347740E+01  1.947229622E+01  1.447600069E-07  0.00000E+00  9.000E+00
</event>
<event>
      6  10011  1.00000E+00  2.35875E+00 -1.00000E+00  3.32459E-01
       2    -1     0     0   501     0  0.000000000E+00  0.000000000E+00  1.317080027E+02  1.317080027E+02  0.000000000E+00  0.00000E+00  9.000E+00
      -2    -1     0     0     0   511  0.000000000E+00  0.000000000E+00 -9.138926327E-01  9.138926327E-01  0.000000000E+00  0.00000E+00  9.000E+00
      23     2     1     2     0     0 -2.358674163E+00 -1.900909463E-02  1.178795812E+02  1.194937286E+02  1.943172181E+01  0.00000E+00  9.000E+00
      11     1     3     3     0     0 -6.391019027E+00 -5.336650365E+00  2.450333648E+01  2.587930563E+01  5.109996930E-04  0.00000E+00  9.000E+00
     -11     1     3     3     0     0  4.032344864E+00  5.317641271E+00  9.337624469E+01  9.361442296E+01  5.109976513E-04  0.00000E+00  9.000E+00
      21     1     1     2   501   511  2.358674163E+00  1.900909463E-02  1.291452888E+01  1.312816671E+01  1.636161749E-07  0.00000E+00  9.000E+00
</event>
<event>
      6  10011  1.00000E+00  2.80653E+01 -1.00000E+00  1.55042E-01
      21    -1     0     0   511   501  0.000000000E+00  0.000000000E+00  5.524034786E+01  5.524034786E+01  0.000000000E+00  0.00000E+00  9.000E+00
       1    -1     0     0   501     0  0.000000000E+00  0.000000000E+00 -3.846154516E+02  3.846154516E+02  0.000000000E+00  0.00000E+00  9.000E+00
      23     2     1     2     0     0  2.021489221E+01  1.946840431E+01 -3.744017016E+02  3.867987061E+02  9.299970044E+01  0.00000E+00  9.000E+00
      11     1     3     3     0     0 -9.058173382E-01  2.396671095E+01 -3.600999262E+02  3.608977426E+02  5.110254128E-04  0.00000E+00  9.000E+00
     -11     1     3     3     0     0  2.112070954E+01 -4.498306639E+00 -1.430177538E+01  2.590096357E+01  5.109970388E-04  0.00000E+00  9.000E+00
       1     1     1     2   511     0 -2.021489221E+01 -1.946840431E+01  4.502659788E+01  5.305709330E+01  1.525787226E-06  0.00000E+00  9.000E+00
</event>
<event>
      6  10011  1.00000E+00  1.42180E+01 -1.00000E+00  1.79554E-01
      21    -1     0     0   501   511  0.000000000E+00  0.000000000E+00  3.492630731E+02  3.492630731E+02  0.000000000E+00  0.00000E+00  9.000E+00
      -2    -1     0     0     0   501  0.000000000E+00  0.000000000E+00 -8.985066793E+00  8.985066793E+00  0.000000000E+00  0.00000E+00  9.000E+00
      23     2     1     2     0     0 -1.283515726E+01 -6.116470570E+00  2.729361015E+02  2.894216580E+02  9.522934481E+01  0.00000E+00  9.000E+00
      11     1     3     3     0     0  1.262096691E+01  2.259079766E+01  2.315306973E+02  2.329723089E+02  5.109946522E-04  0.00000E+00  9.000E+00
     -11     1     3     3     0     0 -2.545612417E+01 -2.870726823E+01  4.140540427E+01  5.644934906E+01  5.110009852E-04  0.00000E+00  9.000E+00
      -2     1     1     2     0   511  1.283515726E+01  6.116470570E+00  6.734190479E+01  6.882648193E+01  3.914214831E-07  0.00000E+00  9.000E+00
</event>
<event>
      6  10011  1.00000E+00  1.14273E+01 -1.00000E+00  1.89235E-01
       2    -1     0     0   511     0  0.000000000E+00  0.000000000E+00  7.078798379E+01  7.078798379E+01  0.000000000E+00  0.00000E+00  9.000E+00
      -2    -1     0     0     0   501  0.000000000E+00  0.000000000E+00 -6.859030311E+00  6.859030311E+00  0.000000000E+00  0.00000E+00  9.000E+00
      23     2     1     2     0     0 -6.826721207E+00  9.164009035E+00  2.180975970E+01  3.400518017E+01  2.345428482E+01  0.00000E+00  9.000E+00
      11     1     3     3     0     0 -5.601241357E+00 -4.518345448E+00  1.853509891E+01  1.988313965E+01  5.109990779E-04  0.00000E+00  9.000E+00
     -11     1     3     3     0     0 -1.225479849E+00  1.368235448E+01  3.274660788E+00  1.412204053E+01  5.109989776E-04  0.00000E+00  9.000E+00
      21     1     1     2   511   501  6.826721207E+00 -9.164009035E+00  4.211919378E+01  4.364183393E+01  7.422214392E-07  0.00000E+00  9.000E+00
</event>
<event>
      6  10011  1.00000E+00  6.49546E+01 -1.00000E+00  1.32861E-01
      21    -1     0     0   511   501  0.000000000E+00  0.000000000E+00  4.631989265E+01  4.631989265E+01  0.000000000E+00  0.00000E+00  9.000E+00
       3    -1     0     0   501     0  0.000000000E+00  0.000000000E+00 -1.879819940E+02  1.879819940E+02  0.000000000E+00  0.00000E+00  9.000E+00
      23     2     1     2     0     0  1.485335368E+01 -6.323353043E+01 -4.196713765E+01  1.153137054E+02  8.553892989E+01  0.00000E+00  9.000E+00
      11     1     3     3     0     0  2.535365591E+01 -1.191979081E+01  1.981680284E+01  3.431610345E+01  5.109982772E-04  0.00000E+00  9.000E+00
     -11     1     3     3     0     0 -1.050030222E+01 -5.131373962E+01 -6.178394049E+01  8.099760196E+01  5.110003280E-04  0.00000E+00  9.000E+00
       3     1     1     2   511     0 -1.485335368E+01  6.323353043E+01 -9.969496365E+01  1.189881812E+02  1.656376509E-06  0.00000E+00  9.000E+00
</event>
<event>
      6  10011  1.00000E+00  1.90007E+00 -1.00000E+00  3.73559E-01
       1    -1     0     0   511     0  0.000000000E+00  0.000000000E+00  5.614829625E+00  5.614829625E+00  0.000000000E+00  0.00000E+00  9.000E+00
      -1    -1     0     0     0   501  0.000000000E+00  0.000000000E+00 -4.024004032E+02  4.024004032E+02  0.000000000E+00  0.00000E+00  9.000E+00
      23     2     1     2     0     0 -3.813947380E-02 -1.899687800E+00 -3.937498999E+02  4.044339505E+02  9.232673716E+01  0.00000E+00  9.000E+00
      11     1     3     3     0     0  2.024152826E+01  2.520376682E+01 -5.352336653E+01  6.252759465E+01  5.110057926E-04  0.00000E+00  9.000E+00
     -11     1     3     3     0     0 -2.027966773E+01 -2.710345462E+01 -3.402265333E+02  3.419063558E+02  5.110001829E-04  0.00000E+00  9.000E+00
      21     1     1     2   511   501  3.813947380E-02  1.899687800E+00 -3.035673760E+00  3.581282387E+00  7.460469337E-08  0.00000E+00  9.000E+00
</event>
<event>
      6  10011  1.00000E+00  3.43289E+01 -1.00000E+00  1.49049E-01
       2    -1     0     0   501     0  0.000000000E+00  0.000000000E+00  5.210653364E+02  5.210653364E+02  0.000000000E+00  0.00000E+00  9.000E+00
      21    -1     0     0   511   501  0.000000000E+00  0.000000000E+00 -6.950307695E+00  6.950307695E+00  0.000000000E+00  0.00000E+00  9.000E+00
      23     2     1     2     0     0  1.183078384E+01  3.222587805E+01  5.475966563E+01  6.737931873E+01  1.904932938E+01  0.00000E+00  9.000E+00
      11     1     3     3     0     0  9.241731622E+00  1.373689198E+01  4.091147451E+01  4.413457320E+01  5.109988668E-04  0.00000E+00  9.000E+00
     -11     1     3     3     0     0  2.589052216E+00  1.848898607E+01  1.384819112E+01  2.324474553E+01  5.109987950E-04  0.00000E+00  9.000E+00
       2     1     1     2   511     0 -1.183078384E+01 -3.222587805E+01  4.593553631E+02  4.606363254E+02  3.799766886E-06  0.00000E+00  9.000E+00
</event>
<event>
      6  10011  1.00000E+00  2.73817E+00 -1.00000E+00  3.09294E-01
      21    -1     0     0   501   511  0.000000000E+00  0.000000000E+00  2.433839561E+00  2.433839561E+00  0.000000000E+00  0.00000E+00  9.000E+00
      -1    -1     0     0     0   501  0.000000000E+00  0.000000000E+00 -4.585791035E+02  4.585791035E+02  0.000000000E+00  0.00000E+00  9.000E+00
      23     2     1     2     0     0  1.005535136E+00 -2.546856263E+00 -4.570983332E+02  4.581136468E+02  3.035999899E+01  0.00000E+00  9.000E+00
      11     1     3     3     0     0 -1.198115898E+00 -1.208411588E+01 -8.264287301E+01  8.353026876E+01  5.109965489E-04  0.00000E+00  9.000E+00
     -11     1     3     3     0     0  2.203651034E+00  9.537259618E+00 -3.744554602E+02  3.745833780E+02  5.109451998E-04  0.00000E+00  9.000E+00
      -1     1     1     2     0   511 -1.005535136E+00  2.546856263E+00  9.530693122E-01  2.899296268E+00  2.417736319E-07  0.00000E+00  9.000E+00
</event>
<event>
      6  10011  1.00000E+00  4.43424E+01 -1.00000E+00  1.42088E-01
      -2    -1     0     0     0   511  0.000000000E+00  0.000000000E+00  1.419847833E+01  1.419847833E+01  0.000000000E+00  0.00000E+00  9.000E+00
       2    -1     0     0   501     0  0.000000000E+00  0.000000000E+00 -9.041945355E+02  9.041945355E+02  0.000000000E+00  0.00000E+00  9.000E+00
      23     2     1     2     0     0  3.215929887E+01  3.052909191E+01 -8.568910488E+02  8.630559780E+02  9.293603006E+01  0.00000E+00  9.000E+00
      11     1     3     3     0     0 -2.768694561E+01 -3.094068521E+00 -4.076312978E+02  4.085822013E+02  5.109932721E-04  0.00000E+00  9.000E+00
     -11     1     3     3     0     0  5.984624449E+01  3.362316043E+01 -4.492597509E+02  4.544737767E+02  5.108810175E-04  0.00000E+00  9.000E+00
      21     1     1     2   501   511 -3.215929887E+01 -3.052909191E+01 -3.310500842E+01  5.533703588E+01  2.531005107E-07  0.00000E+00  9.000E+00
</event>
<event>
      6  10011  1.00000E+00  1.29202E+01 -1.00000E+00  1.83665E-01
       1    -1     0     0   501     0  0.000000000E+00  0.000000000E+00  9.037191754E+00  9.037191754E+00  0.000000000E+00  0.00000E+00  9.000E+00
      21    -1     0     0   511   501  0.000000000E+00  0.000000000E+00 -3.825642760E+01  3.825642760E+01  0.000000000E+00  0.00000E+00  9.000E+00
      23     2     1     2     0     0 -1.213218784E+01 -4.443262227E+00 -1.730604541E+01  2.971930095E+01  2.041580467E+01  0.00000E+00  9.000E+00
      11     1     3     3     0     0 -7.193916062E+00  4.584306844E+00  1.131047409E+00  8.605089544E+00  5.109988978E-04  0.00000E+00  9.000E+00
     -11     1     3     3     0     0 -4.938271777E+00 -9.027569071E+00 -1.843709282E+01  2.111421141E+01  5.109989083E-04  0.00000E+00  9.000E+00
       1     1     1     2   511     0  1.213218784E+01  4.443262227E+00 -1.191319044E+01  1.757431840E+01  1.722115924E-07  0.00000E+00  9.000E+00
</event>
<event>
      6  10011  1.00000E+00  1.71175E+01 -1.00000E+00  1.72101E-01
       1    -1     0     0   501     0  0.000000000E+00  0.000000000E+00  1.041638648E+02  1.041638648E+02  0.000000000E+00  0.00000E+00  9.000E+00
      21    -1     0     0   511   501  0.000000000E+00  0.000000000E+00 -3.331686662E+01  3.331686662E+01  0.000000000E+00  0.00000E+00  9.000E+00
      23     2     1     2     0     0  1.710299168E+01  7.050373791E-01  7.639867755E+01  1.194854391E+02  9.026074912E+01  0.00000E+00  9.000E+00
      11     1     3     3     0     0  1.484829648E+01 -9.891531859E+00 -1.748379437E+01  2.497993949E+01  5.109987465E-04  0.00000E+00  9.000E+00
     -11     1     3     3     0     0  2.254695204E+00  1.059656924E+01  9.388247192E+01  9.450549965E+01  5.109958610E-04  0.00000E+00  9.000E+00
       1     1     1     2   511     0 -1.710299168E+01 -7.050373791E-01 -5.551679331E+00  1.799529232E+01  3.953461587E-08  0.00000E+00  9.000E+00
</event>
<event>
      6  10011  1.00000E+00  6.07598E+00 -1.00000E+00  2.24549E-01
       2    -1     0     0   511     0  0.000000000E+00  0.000000000E+00  5.339317885E+02  5.339317885E+02  0.000000000E+00  0.00000E+00  9.000E+00
      -2    -1     0     0     0   501  0.000000000E+00  0.000000000E+00 -4.971929057E+00  4.971929057E+00  0.000000000E+00  0.00000E+00  9.000E+00
      23     2     1     2     0     0  4.592578248E+00 -3.978159884E+00  4.300882070E+02  4.398455468E+02  9.193107056E+01  0.00000E+00  9.000E+00
      11     1     3     3     0     0  2.360162955E+01  3.152467399E+00  4.118995085E+02  4.125871787E+02  5.110447602E-04  0.00000E+00  9.000E+00
     -11     1     3     3     0     0 -1.900905131E+01 -7.130627283E+00  1.818869851E+01  2.725836809E+01  5.110019615E-04  0.00000E+00  9.000E+00
      21     1     1     2   511   501 -4.592578248E+00  3.978159884E+00  9.887165249E+01  9.905817078E+01  1.524586149E-06  0.00000E+00  9.000E+00
</event>
<event>
      6  10011  1.00000E+00  5.75423E+00 -1.00000E+00  2.28250E-01
       2    -1     0     0   511     0  0.000000000E+00  0.000000000E+00  1.455264527E+01  1.455264527E+01  0.000000000E+00  0.00000E+00  9.000E+00
      -2    -1     0     0     0   501  0.000000000E+00  0.000000000E+00 -1.573121870E+01  1.573121870E+01  0.000000000E+00  0.00000E+00  9.000E+00
      23     2     1     2     0     0 -5.725933276E+00 -5.699296587E-01 -9.385953840E+00  2.026028053E+01  1.700798947E+01  0.00000E+00  9.000E+00
      11     1     3     3     0     0 -9.736914388E+00  3.928939571E+00 -1.934670420E+00  1.067647029E+01  5.109989071E-04  0.00000E+00  9.000E+00
     -11     1     3     3     0     0  4.010981112E+00 -4.498869230E+00 -7.451283420E+00  9.583810239E+00  5.109989926E-04  0.00000E+00  9.000E+00
      21     1     1     2   511   501  5.725933276E+00  5.699296587E-01  8.207380415E+00  1.002358344E+01  1.063829684E-07  0.00000E+00  9.000E+00
</event>
<event>
      6  10011  1.00000E+00  7.72060E+00 -1.00000E+00  2.09642E-01
       2    -1     0     0   501     0  0.000000000E+00  0.000000000E+00  2.177804782E+02  2.177804782E+02  0.000000000E+00  0.00000E+00  9.000E+00
      21    -1     0     0   511   501  0.000000000E+00  0.000000000E+00 -1.610789983E+01  1.610789983E+01  0.000000000E+00  0.00000E+00  9.000E+00
      23     2     1     2     0     0  4.847714224E+00 -6.008934757E+00  2.059639693E+02  2.250552775E+02  9.038314904E+01  0.00000E+00  9.000E+00
      11     1     3     3     0     0 -3.937581758E+01 -1.544504866E+01  7.018729845E+01  8.194669854E+01  5.110002537E-04  0.00000E+00  9.000E+00
     -11     1     3     3     0     0  4.422353180E+01  9.436113908E+00  1.357766708E+02  1.431085789E+02  5.110077315E-04  0.00000E+00  9.000E+00
       2     1     1     2   511     0 -4.847714224E+00  6.008934757E+00 -4.291390912E+00  8.833100592E+00  1.035737900E-07  0.00000E+00  9.000E+00
</event>
<event>
      6  10011  1.00000E+00  4.11977E+00 -1.00000E+00  2.60382E-01
      -3    -1     0     0     0   511  0.000000000E+00  0.000000000E+00  4.593295998E+00  4.593295998E+00  0.000000000E+00  0.00000E+00  9.000E+00
       3    -1     0     0   501     0  0.000000000E+00  0.000000000E+00 -3.296552713E+01  3.296552713E+01  0.000000000E+00  0.00000E+00  9.000E+00
      23     2     1     2     0     0 -9.560010962E-01 -4.007311549E+00 -2.422922349E+01  3.171613571E+01  2.004708232E+01  0.00000E+00  9.000E+00
      11     1     3     3     0     0 -6.172351384E+00 -9.671586535E+00 -1.965793421E+01  2.276119253E+01  5.109987978E-04  0.00000E+00  9.000E+00
     -11     1     3     3     0     0  5.216350288E+00  5.664274986E+00 -4.571289288E+00  8.954943186E+00  5.109988772E-04  0.00000E+00  9.000E+00
      21     1     1     2   501   511  9.560010962E-01  4.007311549E+00 -4.143007637E+00  5.842687415E+00  7.779749487E-08  0.00000E+00  9.000E+00
</event>
<event>
      6  10011  1.00000E+00  3.08513E+00 -1.00000E+00  2.93093E-01
      21    -1     0     0   501   511  0.000000000E+00  0.000000000E+00  5.188433812E+01  5.188433812E+01  0.000000000E+00  0.00000E+00  9.000E+00
      -2    -1     0     0     0   501  0.000000000E+00  0.000000000E+00 -2.184467018E+02  2.184467018E+02  0.000000000E+00  0.00000E+00  9.000E+00
      23     2     1     2     0     0 -8.998894199E-01  2.950971556E+00 -2.091168488E+02  2.276648679E+02  8.995508664E+01  0.00000E+00  9.000E+00
      11     1     3     3     0     0 -7.442492146E+00 -4.228747037E+01 -1.211020148E+02  1.284885941E+02  5.110010215E-04  0.00000E+00  9.000E+00
     -11     1     3     3     0     0  6.542602726E+00  4.523844193E+01 -8.801483398E+01  9.917627377E+01  5.110013031E-04  0.00000E+00  9.000E+00
      -2     1     1     2     0   511  8.998894199E-01 -2.950971556E+00  4.255448507E+01  4.266617201E+01  1.082156757E-06  0.00000E+00  9.000E+00
</event>
<event>
      6  10011  1.00000E+00  8.00575E+00 -1.00000E+00  2.07564E-01
      21    -1     0     0   511   501  0.000000000E+00  0.000000000E+00  3.196394709E+01  3.196394709E+01  0.000000000E+00  0.00000E+00  9.000E+00
       1    -1     0     0   501     0  0.000000000E+00  0.000000000E+00 -1.041543270E+02  1.041543270E+02  0.000000000E+00  0.00000E+00  9.000E+00
      23     2     1     2     0     0 -6.768388015E+00  4.275625526E+00 -8.310478250E+01  1.225825349E+02  8.975511649E+01  0.00000E+00  9.000E+00
      11     1     3     3     0     0  8.706571979E+00 -3.337156906E+01 -5.463555141E+00  3.491871206E+01  5.109992855E-04  0.00000E+00  9.000E+00
     -11     1     3     3     0     0 -1.547495999E+01  3.764719459E+01 -7.764122736E+01  8.766382283E+01  5.109964350E-04  0.00000E+00  9.000E+00
       1     1     1     2   511     0  6.768388015E+00 -4.275625526E+00  1.091440263E+01  1.353573916E+01  2.198552591E-07  0.00000E+00  9.000E+00
</event>
<event>
      6  10011  1.00000E+00  2.91542E+00 -1.00000E+00  3.00545E-01
      21    -1     0     0   511   501  0.000000000E+00  0.000000000E+00  2.838560639E+02  2.838560639E+02  0.000000000E+00  0.00000E+00  9.000E+00
       3    -1     0     0   501     0  0.000000000E+00  0.000000000E+00 -3.769902030E+01  3.769902030E+01  0.000000000E+00  0.00000E+00  9.000E+00
      23     2     1     2     0     0 -2.528344520E+00  1.451599056E+00  1.890837991E+01  9.428772004E+01  9.232631073E+01  0.00000E+00  9.000E+00
      11     1     3     3     0     0  5.304839034E+00 -3.169149992E+01 -2.356470014E+01  3.984705230E+01  5.109994672E-04  0.00000E+00  9.000E+00
     -11     1     3     3     0     0 -7.833183554E+00  3.314309898E+01  4.247308005E+01  5.444066774E+01  5.109996462E-04  0.00000E+00  9.000E+00
       3     1     1     2   511     0  2.528344520E+00 -1.451599056E+00  2.272486636E+02  2.272673641E+02  1.678482037E-06  0.00000E+00  9.000E+00
</event>
<event>
      6  10011  1.00000E+00  9.27416E-01 -1.00000E+00  7.15739E-01
      -2    -1     0     0     0   511  0.000000000E+00  0.000000000E+00  2.990249421E-01  2.990249421E-01  0.000000000E+00  0.00000E+00  9.000E+00
       2    -1     0     0   501     0  0.000000000E+00  0.000000000E+00 -4.327791119E+02  4.327791119E+02  0.000000000E+00  0.00000E+00  9.000E+00
      23     2     1     2     0     0  7.544495491E-01 -5.393573993E-01 -4.183146340E+02  4.188823573E+02  2.178155417E+01  0.00000E+00  9.000E+00
      11     1     3     3     0     0  4.705491497E+00 -9.337612819E+00 -1.353014010E+02  1.357048333E+02  5.110032107E-04  0.00000E+00  9.000E+00
     -11     1     3     3     0     0 -3.951041948E+00  8.798255420E+00 -2.830132331E+02  2.831775240E+02  5.110638288E-04  0.00000E+00  9.000E+00
      21     1     1     2   501   511 -7.544495491E-01  5.393573993E-01 -1.416545293E+01  1.419577956E+01  4.756132265E-08  0.00000E+00  9.000E+00
</event>
<event>
      6  10011  1.00000E+00  1.49433E+00 -1.00000E+00  4.45643E-01
      -2    -1     0     0     0   501  0.000000000E+00  0.000000000E+00  1.841381093E-01  1.841381093E-01  0.000000000E+00  0.00000E+00  9.000E+00
       2    -1     0     0   511     0  0.000000000E+00  0.000000000E+00 -4.525133955E+02  4.525133955E+02  0.000000000E+00  0.00000E+00  9.000E+00
      23     2     1     2     0     0  1.217698467E+00  8.661667930E-01 -4.080131776E+02  4.083562666E+02  1.666896274E+01  0.00000E+00  9.000E+00
      11     1     3     3     0     0  1.419127396E+00  4.857668529E+00 -3.968107166E+01  4.000247886E+01  5.109984406E-04  0.00000E+00  9.000E+00
     -11     1     3     3     0     0 -2.014289294E-01 -3.991501736E+00 -3.683321059E+02  3.683537877E+02  5.109840112E-04  0.00000E+00  9.000E+00
      21     1     1     2   511   501 -1.217698467E+00 -8.661667930E-01 -4.431607976E+01  4.434126701E+01  8.041106202E-07  0.00000E+00  9.000E+00
</event>
<event>
      6  10011  1.00000E+00  5.89440E+00 -1.00000E+00  2.26597E-01
       2    -1     0     0   501     0  0.000000000E+00  0.000000000E+00  2.791612842E+02  2.791612842E+02  0.000000000E+00  0.00000E+00  9.000E+00
      21    -1     0     0   511   501  0.000000000E+00  0.000000000E+00 -1.948077860E+01  1.948077860E+01  0.000000000E+00  0.00000E+00  9.000E+00
      23     2     1     2     0     0 -5.791333264E+00 -1.097476620E+00  2.709152555E+02  2.859549197E+02  9.132577096E+01  0.00000E+00  9.000E+00
      11     1     3     3     0     0  2.541993821E+01 -3.535045872E+01  1.582778874E+02  1.641576006E+02  5.109934024E-04  0.00000E+00  9.000E+00
     -11     1     3     3     0     0 -3.121127148E+01  3.425298210E+01  1.126373681E+02  1.217973191E+02  5.109999308E-04  0.00000E+00  9.000E+00
       2     1     1     2   511     0  5.791333264E+00  1.097476620E+00 -1.123474988E+01  1.268714313E+01  3.409200389E-07  0.00000E+00  9.000E+00
</event>
<event>
      6  10011  1.00000E+00  4.95535E+00 -1.00000E+00  2.43228E-01
      -2    -1     0     0     0   511  0.000000000E+00  0.000000000E+00  2.740522564E+00  2.740522564E+00  0.000000000E+00  0.00000E+00  9.000E+00
       2    -1     0     0   501     0  0.000000000E+00  0.000000000E+00 -9.185070238E+02  9.185070238E+02  0.000000000E+00  0.00000E+00  9.000E+00
      23     2     1     2     0     0  2.690118240E+00 -4.161580441E+00 -9.011868050E+02  9.058487467E+02  9.165008974E+01  0.00000E+00  9.000E+00
      11     1     3     3     0     0  1.433657250E+01 -4.400647044E+01 -6.048916779E+02  6.066597470E+02  5.110091098E-04  0.00000E+00  9.000E+00
     -11     1     3     3     0     0 -1.164645426E+01  3.984489000E+01 -2.962951272E+02  2.991889997E+02  5.109889893E-04  0.00000E+00  9.000E+00
      21     1     1     2   501   511 -2.690118240E+00  4.161580441E+00 -1.457969619E+01  1.539879959E+01  3.670498114E-07  0.00000E+00  9.000E+00
</event>
<event>
      6  10011  1.00000E+00  7.95817E+00 -1.00000E+00  2.07902E-01
       3    -1     0     0   501     0  0.000000000E+00  0.000000000E+00  7.676911194E+01  7.676911194E+01  0.000000000E+00  0.00000E+00  9.000E+00
      21    -1     0     0   511   501  0.000000000E+00  0.000000000E+00 -6.898919277E+00  6.898919277E+00  0.000000000E+00  0.00000E+00  9.000E+00
      23     2     1     2     0     0  1.972864266E+00 -7.709755860E+00  5.150938298E+01  6.365673788E+01  3.654628864E+01  0.00000E+00  9.000E+00
      11     1     3     3     0     0  3.651393767E+00 -1.204731384E+01  5.587638614E+01  5.727687994E+01  5.109991832E-04  0.00000E+00  9.000E+00
     -11     1     3     3     0     0 -1.678529501E+00  4.337557975E+00 -4.367003160E+00  6.379857940E+00  5.109989127E-04  0.00000E+00  9.000E+00
       3     1     1     2   511     0 -1.972864266E+00  7.709755860E+00  1.836080968E+01  2.001129334E+01  1.666000469E-08  0.00000E+00  9.000E+00
</event>
<event>
      6  10011  1.00000E+00  7.70090E+00 -1.00000E+00  2.09791E-01
       2    -1     0     0   511     0  0.000000000E+00  0.000000000E+00  5.903971634E+02  5.903971634E+02  0.000000000E+00  0.00000E+00  9.000E+00
      -2    -1     0     0     0   501  0.000000000E+00  0.000000000E+00 -8.789419178E+00  8.789419178E+00  0.000000000E+00  0.00000E+00  9.000E+00
      23     2     1     2     0     0  4.116794609E+00 -6.508137725E+00  1.978431971E+02  2.153447773E+02  8.468847982E+01  0.00000E+00  9.000E+00
      11     1     3     3     0     0  1.965339075E+01  3.221395292E+00  1.959007681E+02  1.969104977E+02  5.110034957E-04  0.00000E+00  9.000E+00
     -11     1     3     3     0     0 -1.553659614E+01 -9.729533016E+00  1.942428942E+00  1.843427955E+01  5.109991532E-04  0.00000E+00  9.000E+00
      21     1     1     2   511   501 -4.116794609E+00  6.508137725E+00  3.837645472E+02  3.838418053E+02  4.417182759E-06  0.00000E+00  9.000E+00
</event>
<event>
      6  10011  1.00000E+00  8.23518E+00 -1.00000E+00  2.05974E-01
       4    -1     0     0   501     0  0.000000000E+00  0.000000000E+00  5.415872028E+01  5.415872028E+01  0.000000000E+00  0.00000E+00  9.000E+00
      21    -1     0     0   511   501  0.000000000E+00  0.000000000E+00 -3.958630912E+00  3.958630912E+00  0.000000000E+00  0.00000E+00  9.000E+00
      23     2     1     2     0     0 -7.698409123E+00  2.924507009E+00  4.444164432E+01  4.806857347E+01  1.636183858E+01  0.00000E+00  9.000E+00
      11     1     3     3     0     0 -1.200068296E+01  3.003986099E+00  2.219691792E+01  2.541148341E+01  5.109990460E-04  0.00000E+00  9.000E+00
     -11     1     3     3     0     0  4.302273837E+00 -7.947908994E-02  2.224472640E+01  2.265709006E+01  5.109989787E-04  0.00000E+00  9.000E+00
       4     1     1     2   511     0  7.698409123E+00 -2.924507009E+00  5.758445057E+00  1.004877772E+01  3.757745214E-08  0.00000E+00  9.000E+00
</event>
<event>
      6  10011  1.00000E+00  1.45727E+00 -1.00000E+00  4.54401E-01
      -2    -1     0     0     0   511  0.000000000E+00  0.000000000E+00  1.192109045E+00  1.192109045E+00  0.000000000E+00  0.00000E+00  9.000E+00
       2    -1     0     0   501     0  0.000000000E+00  0.000000000E+00 -9.540282617E+01  9.540282617E+01  0.000000000E+00  0.00000E+00  9.000E+00
      23     2     1     2     0     0  1.036128447E+00 -1.024735472E+00 -9.198370705E+01  9.393350349E+01  1.898360005E+01  0.00000E+00  9.000E+00
      11     1     3     3     0     0 -9.394955626E-01 -9.144635344E+00 -6.604900748E+01  6.668566860E+01  5.110004896E-04  0.00000E+00  9.000E+00
     -11     1     3     3     0     0  1.975624010E+00  8.119899872E+00 -2.593469956E+01  2.724783489E+01  5.109986562E-04  0.00000E+00  9.000E+00
      21     1     1     2   501   511 -1.036128447E+00  1.024735472E+00 -2.227010083E+00  2.661431731E+00  4.901624235E-08  0.00000E+00  9.000E+00
</event>
<event>
      6  10011  1.00000E+00  1.15698E+01 -1.00000E+00  1.88657E-01
      -1    -1     0     0     0   511  0.000000000E+00  0.000000000E+00  2.132115256E+02  2.132115256E+02  0.000000000E+00  0.00000E+00  9.000E+00
       1    -1     0     0   501     0  0.000000000E+00  0.000000000E+00 -2.073337087E+01  2.073337087E+01  0.000000000E+00  0.00000E+00  9.000E+00
      23     2     1     2     0     0  6.791493009E-01  1.154982542E+01  7.942901300E+01  1.203052548E+02  8.961320504E+01  0.00000E+00  9.000E+00
      11     1     3     3     0     0 -6.163701425E+00  4.147164741E+01  7.919644313E+01  8.961007398E+01  5.110003523E-04  0.00000E+00  9.000E+00
     -11     1     3     3     0     0  6.842850726E+00 -2.992182199E+01  2.325698763E-01  3.069518083E+01  5.109992077E-04  0.00000E+00  9.000E+00
      21     1     1     2   501   511 -6.791493009E-01 -1.154982542E+01  1.130491417E+02  1.136396417E+02  1.427403690E-06  0.00000E+00  9.000E+00
</event>
<event>
      6  10011  1.00000E+00  1.47845E+01 -1.00000E+00  1.77930E-01
       2    -1     0     0   501     0  0.000000000E+00  0.000000000E+00  1.237397769E+02  1.237397769E+02  0.000000000E+00  0.00000E+00  9.000E+00
      21    -1     0     0   511   501  0.000000000E+00  0.000000000E+00 -2.737253294E+01  2.737253294E+01  0.000000000E+00  0.00000E+00  9.000E+00
      23     2     1     2     0     0  1.457057640E+01  2.506078594E+00  8.404980098E+01  1.318690895E+02  1.005311176E+02  0.00000E+00  9.000E+00
      11     1     3     3     0     0 -1.825337239E+01 -1.978954367E+01 -1.083549371E+01  2.902101939E+01  5.109992483E-04  0.00000E+00  9.000E+00
     -11     1     3     3     0     0  3.282394878E+01  2.229562226E+01  9.488529469E+01  1.028480702E+02  5.109993103E-04  0.00000E+00  9.000E+00
       2     1     1     2   511     0 -1.457057640E+01 -2.506078594E+00  1.231744300E+01  1.924322032E+01  1.581384635E-07  0.00000E+00  9.000E+00
</event>
<event>
      6  10011  1.00000E+00  5.49954E+00 -1.00000E+00  2.31428E-01
      -4    -1     0     0     0   501  0.000000000E+00  0.000000000E+00  1.340363924E+00  1.340363924E+00  0.000000000E+00  0.00000E+00  9.000E+00
      21    -1     0     0   501   511  0.000000000E+00  0.000000000E+00 -1.642543659E+02  1.642543659E+02  0.000000000E+00  0.00000E+00  9.000E+00
      23     2     1     2     0     0 -4.678258438E+00 -2.891171429E+00 -7.112031201E+01  7.363644313E+01  1.827517448E+01  0.00000E+00  9.000E+00
      11     1     3     3     0     0  2.798020858E+00  6.199582806E+00 -3.473688119E+01  3.539653462E+01  5.109990662E-04  0.00000E+00  9.000E+00
     -11     1     3     3     0     0 -7.476279297E+00 -9.090754235E+00 -3.638343082E+01  3.823990852E+01  5.109991196E-04  0.00000E+00  9.000E+00
      -4     1     1     2     0   511  4.678258438E+00  2.891171429E+00 -9.179368999E+01  9.195828672E+01  6.873942968E-07  0.00000E+00  9.000E+00
</event>
<event>
      6  10011  1.00000E+00  5.07082E+00 -1.00000E+00  2.37367E-01
       2    -1     0     0   501     0  0.000000000E+00  0.000000000E+00  2.340315869E+01  2.340315869E+01  0.000000000E+00  0.00000E+00  9.000E+00
      21    -1     0     0   511   501  0.000000000E+00  0.000000000E+00 -1.042034845E+01  1.042034845E+01  0.000000000E+00  0.00000E+00  9.000E+00
      23     2     1     2     0     0  4.592443404E+00  2.150040102E+00  1.589328989E+01  2.797679006E+01  2.245864888E+01  0.00000E+00  9.000E+00
      11     1     3     3     0     0 -8.678969040E+00 -2.296193934E+00  7.117409162E+00  1.145663666E+01  5.109989416E-04  0.00000E+00  9.000E+00
     -11     1     3     3     0     0  1.327141244E+01  4.446234036E+00  8.775880728E+00  1.652015339E+01  5.109989529E-04  0.00000E+00  9.000E+00
       2     1     1     2   511     0 -4.592443404E+00 -2.150040102E+00 -2.910479645E+00  5.846717081E+00  9.599401598E-08  0.00000E+00  9.000E+00
</event>
<event>
      6  10011  1.00000E+00  3.56038E+00 -1.00000E+00  2.75863E-01
       1    -1     0     0   501     0  0.000000000E+00  0.000000000E+00  1.240268321E+01  1.240268321E+01  0.000000000E+00  0.00000E+00  9.000E+00
      21    -1     0     0   511   501  0.000000000E+00  0.000000000E+00 -1.569403606E+01  1.569403606E+01  0.000000000E+00  0.00000E+00  9.000E+00
      23     2     1     2     0     0 -3.443726574E+00  9.039247594E-01  3.626102601E+00  2.031677566E+01  1.967095372E+01  0.00000E+00  9.000E+00
      11     1     3     3     0     0 -1.127753115E+01 -5.516812301E-01  4.788669335E+00  1.226451855E+01  5.109988998E-04  0.00000E+00  9.000E+00
     -11     1     3     3     0     0  7.833804572E+00  1.455605990E+00 -1.162566734E+00  8.052257109E+00  5.109988914E-04  0.00000E+00  9.000E+00
       1     1     1     2   511     0  3.443726574E+00 -9.039247594E-01 -6.917455452E+00  7.779943613E+00  4.824934098E-08  0.00000E+00  9.000E+00
</event>
<event>
      6  10011  1.00000E+00  2.84898E+00 -1.00000E+00  3.03699E-01
      -1    -1     0     0     0   511  0.000000000E+00  0.000000000E+00  1.635224499E+01  1.635224499E+01  0.000000000E+00  0.00000E+00  9.000E+00
       1    -1     0     0   501     0  0.000000000E+00  0.000000000E+00 -1.063987037E+01  1.063987037E+01  0.000000000E+00  0.00000E+00  9.000E+00
      23     2     1     2     0     0  4.640712201E-01  2.810930954E+00  5.032258393E-01  2.105478212E+01  2.085506938E+01  0.00000E+00  9.000E+00
      11     1     3     3     0     0 -2.709169098E+00 -7.751379684E+00  4.452061489E+00  9.340467652E+00  5.109988750E-04  0.00000E+00  9.000E+00
     -11     1     3     3     0     0  3.173240318E+00  1.056231064E+01 -3.948835649E+00  1.171431446E+01  5.109988813E-04  0.00000E+00  9.000E+00
      21     1     1     2   501   511 -4.640712201E-01 -2.810930954E+00  5.209148782E+00  5.937333236E+00  5.597240925E-08  0.00000E+00  9.000E+00
</event>
<event>
      6  10011  1.00000E+00  1.97288E+01 -1.00000E+00  1.66818E-01
      21    -1     0     0   511   501  0.000000000E+00  0.000000000E+00  8.141988393E+00  8.141988393E+00  0.000000000E+00  0.00000E+00  9.000E+00
       4    -1     0     0   501     0  0.000000000E+00  0.000000000E+00 -7.647536517E+01  7.647536517E+01  0.000000000E+00  0.00000E+00  9.000E+00
      23     2     1     2     0     0 -1.972732006E+01 -2.395570687E-01 -4.496150216E+01  5.403191475E+01  2.255408146E+01  0.00000E+00  9.000E+00
      11     1     3     3     0     0  2.643392632E+00  4.238558791E+00 -1.816244990E+01  1.883686523E+01  5.109991985E-04  0.00000E+00  9.000E+00
     -11     1     3     3     0     0 -2.237071269E+01 -4.478115860E+00 -2.679905226E+01  3.519504951E+01  5.109989888E-04  0.00000E+00  9.000E+00
       4     1     1     2   511     0  1.972732006E+01  2.395570687E-01 -2.337187462E+01  3.058543882E+01  1.110111507E-07  0.00000E+00  9.000E+00
</event>
<event>
      6  10011  1.00000E+00  5.31080E+00 -1.00000E+00  2.33945E-01
      -2    -1     0     0     0   501  0.000000000E+00  0.000000000E+00  1.051339853E+01  1.051339853E+01  0.000000000E+00  0.00000E+00  9.000E+00
       2    -1     0     0   511     0  0.000000000E+00  0.000000000E+00 -2.297776304E+02  2.297776304E+02  0.000000000E+00  0.00000E+00  9.000E+00
      23     2     1     2     0     0 -2.289276024E+00 -4.792056700E+00 -2.045023918E+02  2.246029279E+02  9.272023713E+01  0.00000E+00  9.000E+00
      11     1     3     3     0     0  3.355387316E+01 -3.287944688E+01 -1.136698096E+02  1.229949026E+02  5.110055215E-04  0.00000E+00  9.000E+00
     -11     1     3     3     0     0 -3.584314918E+01  2.808739018E+01 -9.083258215E+01  1.016080253E+02  5.110049018E-04  0.00000E+00  9.000E+00
      21     1     1     2   511   501  2.289276024E+00  4.792056700E+00 -1.476184008E+01  1.568810105E+01  1.371291453E-07  0.00000E+00  9.000E+00
</event>
<event>
      6  10011  1.00000E+00  5.83777E+00 -1.00000E+00  2.27257E-01
      21    -1     0     0   511   501  0.000000000E+00  0.000000000E+00  6.987613748E+01  6.987613748E+01  0.000000000E+00  0.00000E+00  9.000E+00
       1    -1     0     0   501     0  0.000000000E+00  0.000000000E+00 -3.676560392E+01  3.676560392E+01  0.000000000E+00  0.00000E+00  9.000E+00
      23     2     1     2     0     0 -5.822527008E+00  4.215921688E-01  2.808951276E+01  9.894172772E+01  9.469089289E+01  0.00000E+00  9.000E+00
      11     1     3     3     0     0 -1.408953063E+01  4.525849164E+01  4.516653566E+00  4.761560772E+01  5.109979956E-04  0.00000E+00  9.000E+00
     -11     1     3     3     0     0  8.267003618E+00 -4.483689947E+01  2.357285919E+01  5.132612000E+01  5.109993957E-04  0.00000E+00  9.000E+00
       1     1     1     2   511     0  5.822527008E+00 -4.215921688E-01  5.021020801E+00  7.700013675E+00  6.918165993E-08  0.00000E+00  9.000E+00
</event>
<event>
      6  10011  1.00000E+00  2.44928E+01 -1.00000E+00  1.59382E-01
      21    -1     0     0   511   501  0.000000000E+00  0.000000000E+00  3.438493307E+00  3.438493307E+00  0.000000000E+00  0.00000E+00  9.000E+00
       2    -1     0     0   501     0  0.000000000E+00  0.000000000E+00 -2.522159109E+02  2.522159109E+02  0.000000000E+00  0.00000E+00  9.000E+00
      23     2     1     2     0     0 -1.322261491E+01 -2.061694346E+01 -1.809589413E+02  1.835486372E+02  1.854906727E+01  0.00000E+00  9.000E+00
      11     1     3     3     0     0 -1.247752991E+01 -2.411071685E+01 -1.608038673E+02  1.630794259E+02  5.110072222E-04  0.00000E+00  9.000E+00
     -11     1     3     3     0     0 -7.450850065E-01  3.493773392E+00 -2.015507399E+01  2.046921132E+01  5.109987597E-04  0.00000E+00  9.000E+00
       2     1     1     2   511     0  1.322261491E+01  2.061694346E+01 -6.781847635E+01  7.210576702E+01  1.212775108E-06  0.00000E+00  9.000E+00
</event>
<event>
      5  10011  1.00000E+00  8.94427E-01 -1.00000E+00  7.13486E-01
      -2    -1     0     0     0   501  0.000000000E+00  0.000000000E+00  9.787767509E-01  9.787767509E-01  0.000000000E+00  0.00000E+00  9.000E+00
       2    -1     0     0   501     0  0.000000000E+00  0.000000000E+00 -1.070846913E+02  1.070846913E+02  0.000000000E+00  0.00000E+00  9.000E+00
      23     2     1     2     0     0  0.000000000E+00  0.000000000E+00 -1.061059146E+02  1.080634681E+02  2.047554700E+01  0.00000E+00  9.000E+00
      11     1     3     3     0     0 -8.214164636E+00  4.442584771E+00 -7.519593719E+01  7.577359718E+01  5.109994998E-04  0.00000E+00  9.000E+00
     -11     1     3     3     0     0  8.214164636E+00 -4.442584771E+00 -3.090997741E+01  3.228987091E+01  5.109990826E-04  0.00000E+00  9.000E+00
</event>
<event>
      6  10011  1.00000E+00  4.65059E+00 -1.00000E+00  2.48849E-01
      -2    -1     0     0     0   511  0.000000000E+00  0.000000000E+00  1.183567859E+02  1.183567859E+02  0.000000000E+00  0.00000E+00  9.000E+00
       2    -1     0     0   501     0  0.000000000E+00  0.000000000E+00 -3.034142668E+01  3.034142668E+01  0.000000000E+00  0.00000E+00  9.000E+00
      23     2     1     2     0     0  4.066918440E+00  2.255703779E+00  3.715431290E+01  9.762499006E+01  9.015856971E+01  0.00000E+00  9.000E+00
      11     1     3     3     0     0  4.542902525E+01  5.371577813E+00  6.851343442E+00  4.625571414E+01  5.109996577E-04  0.00000E+00  9.000E+00
     -11     1     3     3     0     0 -4.136210681E+01 -3.115874034E+00  3.030296945E+01  5.136927592E+01  5.109997689E-04  0.00000E+00  9.000E+00
      21     1     1     2   501   511 -4.066918440E+00 -2.255703779E+00  5.086104629E+01  5.107322249E+01  1.750490088E-07  0.00000E+00  9.000E+00
</event>
<event>
      6  10011  1.00000E+00  3.79057E+00 -1.00000E+00  2.68984E-01
      -1    -1     0     0     0   511  0.000000000E+00  0.000000000E+00  8.468474803E+00  8.468474803E+00  0.000000000E+00  0.00000E+00  9.000E+00
       1    -1     0     0   501     0  0.000000000E+00  0.000000000E+00 -2.860772018E+01  2.860772018E+01  0.000000000E+00  0.00000E+00  9.000E+00
      23     2     1     2     0     0 -2.783836931E+00  2.572684727E+00 -2.399967636E+01  3.166589165E+01  2.030703754E+01  0.00000E+00  9.000E+00
      11     1     3     3     0     0 -3.519627703E+00 -7.129602465E+00 -1.927250605E+01  2.084822535E+01  5.109989403E-04  0.00000E+00  9.000E+00
     -11     1     3     3     0     0  7.357907717E-01  9.702287191E+00 -4.727170309E+00  1.081766630E+01  5.109989143E-04  0.00000E+00  9.000E+00
      21     1     1     2   501   511  2.783836931E+00 -2.572684727E+00  3.860430984E+00  5.410303332E+00  1.258802272E-07  0.00000E+00  9.000E+00
</event>
<event>
      6  10011  1.00000E+00  1.97878E+00 -1.00000E+00  3.65029E-01
      -1    -1     0     0     0   501  0.000000000E+00  0.000000000E+00  9.864072065E+01  9.864072065E+01  0.000000000E+00  0.00000E+00  9.000E+00
      21    -1     0     0   501   511  0.000000000E+00  0.000000000E+00 -2.663668735E+01  2.663668735E+01  0.000000000E+00  0.00000E+00  9.000E+00
      23     2     1     2     0     0  8.340408940E-01 -1.794420636E+00  7.744215360E+01  1.194904639E+02  9.097674557E+01  0.00000E+00  9.000E+00
      11     1     3     3     0     0  1.638113565E+00 -4.501835554E+01  5.396300198E+01  7.029467501E+01  5.109992441E-04  0.00000E+00  9.000E+00
     -11     1     3     3     0     0 -8.040726713E-01  4.322393491E+01  2.347915163E+01  4.919578887E+01  5.109978066E-04  0.00000E+00  9.000E+00
      -1     1     1     2     0   511 -8.340408940E-01  1.794420636E+00 -5.438120307E+00  5.786944108E+00  1.088412910E-07  0.00000E+00  9.000E+00
</event>
<event>
      6  10011  1.00000E+00  1.66282E+01 -1.00000E+00  1.73223E-01
       3    -1     0     0   511     0  0.000000000E+00  0.000000000E+00  3.295151251E+02  3.295151251E+02  0.000000000E+00  0.00000E+00  9.000E+00
      -3    -1     0     0     0   501  0.000000000E+00  0.000000000E+00 -4.946115282E+00  4.946115282E+00  0.000000000E+00  0.00000E+00  9.000E+00
      23     2     1     2     0     0 -1.488646334E+01  7.408784362E+00  7.462418355E+01  8.396390895E+01  3.470839033E+01  0.00000E+00  9.000E+00
      11     1     3     3     0     0 -2.408087894E+01  3.870261410E+00  6.759744023E+01  7.186293606E+01  5.109974375E-04  0.00000E+00  9.000E+00
     -11     1     3     3     0     0  9.194415596E+00  3.538522952E+00  7.026743319E+00  1.210097288E+01  5.109987481E-04  0.00000E+00  9.000E+00
      21     1     1     2   511   501  1.488646334E+01 -7.408784362E+00  2.499448263E+02  2.504973315E+02  2.297679814E-06  0.00000E+00  9.000E+00
</event>
<event>
      6  10011  1.00000E+00  3.18213E+00 -1.00000E+00  2.89179E-01
      -2    -1     0     0     0   511  0.000000000E+00  0.000000000E+00  1.823596736E-01  1.823596736E-01  0.000000000E+00  0.00000E+00  9.000E+00
       2    -1     0     0   501     0  0.000000000E+00  0.000000000E+00 -1.402497573E+03  1.402497573E+03  0.000000000E+00  0.00000E+00  9.000E+00
      23     2     1     2     0     0  3.035154747E+00 -9.559311680E-01 -1.362127598E+03  1.362366530E+03  2.531490158E+01  0.00000E+00  9.000E+00
      11     1     3     3     0     0 -3.016493363E+00 -1.948382621E+00 -1.281853358E+03  1.281858388E+03  5.105003339E-04  0.00000E+00  9.000E+00
     -11     1     3     3     0     0  6.051648111E+00  9.924514526E-01 -8.027424011E+01  8.050814263E+01  5.110011553E-04  0.00000E+00  9.000E+00
      21     1     1     2   501   511 -3.035154747E+00  9.559311680E-01 -4.018761564E+01  4.031340248E+01  6.354432422E-07  0.00000E+00  9.000E+00
</event>
<event>
      6  10011  1.00000E+00  9.26474E+00 -1.00000E+00  1.99610E-01
       2    -1     0     0   501     0  0.000000000E+00  0.000000000E+00  2.307739291E+00  2.307739291E+00  0.000000000E+00  0.00000E+00  9.000E+00
      21    -1     0     0   511   501  0.000000000E+00  0.000000000E+00 -2.666838428E+02  2.666838428E+02  0.000000000E+00  0.00000E+00  9.000E+00
      23     2     1     2     0     0  8.000195195E+00 -4.672494829E+00 -5.229487391E+01  5.670808466E+01  1.988008295E+01  0.00000E+00  9.000E+00
      11     1     3     3     0     0  3.736713203E+00 -3.193622852E+00 -5.195022210E+01  5.218225588E+01  5.109981480E-04  0.00000E+00  9.000E+00
     -11     1     3     3     0     0  4.263481992E+00 -1.478871977E+00 -3.446518082E-01  4.525828781E+00  5.109989325E-04  0.00000E+00  9.000E+00
       2     1     1     2   511     0 -8.000195195E+00  4.672494829E+00 -2.120812296E+02  2.122834974E+02  2.834825981E-06  0.00000E+00  9.000E+00
</event>
<event>
      6  10011  1.00000E+00  9.08895E+00 -1.00000E+00  2.00617E-01
      -2    -1     0     0     0   511  0.000000000E+00  0.000000000E+00  2.049750751E+00  2.049750751E+00  0.000000000E+00  0.00000E+00  9.000E+00
       2    -1     0     0   501     0  0.000000000E+00  0.000000000E+00 -3.171620997E+02  3.171620997E+02  0.000000000E+00  0.00000E+00  9.000E+00
      23     2     1     2     0     0 -7.266079405E-01 -9.059855501E+00 -3.046912359E+02  3.053840329E+02  1.844042792E+01  0.00000E+00  9.000E+00
      11     1     3     3     0     0  2.470571905E+00 -5.197344660E+00 -2.523580576E+01  2.588362435E+01  5.109993522E-04  0.00000E+00  9.000E+00
     -11     1     3     3     0     0 -3.197179846E+00 -3.862510841E+00 -2.794554301E+02  2.795004085E+02  5.109828848E-04  0.00000E+00  9.000E+00
      21     1     1     2   501   511  7.266079405E-01  9.059855501E+00 -1.042111305E+01  1.382781755E+01  5.997138891E-07  0.00000E+00  9.000E+00
</event>
<event>
      6  10011  1.00000E+00  6.24143E+00 -1.00000E+00  2.22767E-01
      -2    -1     0     0     0   501  0.000000000E+00  0.000000000E+00  7.047214937E+01  7.047214937E+01  0.000000000E+00  0.00000E+00  9.000E+00
       2    -1     0     0   511     0  0.000000000E+00  0.000000000E+00 -7.610282002E+00  7.610282002E+00  0.000000000E+00  0.00000E+00  9.000E+00
      23     2     1     2     0     0  4.630781452E+00 -4.184654941E+00  6.408863741E+01  7.172157934E+01  3.158600994E+01  0.00000E+00  9.000E+00
      11     1     3     3     0     0  1.754231858E+01 -4.521234955E+00  4.646691022E+01  4.987332205E+01  5.109994398E-04  0.00000E+00  9.000E+00
     -11     1     3     3     0     0 -1.291153713E+01  3.365800138E-01  1.762172719E+01  2.184825729E+01  5.109988261E-04  0.00000E+00  9.000E+00
      21     1     1     2   511   501 -4.630781452E+00  4.184654941E+00 -1.226770042E+00  6.360852032E+00  9.876740670E-08  0.00000E+00  9.000E+00
</event>
<event>
      6  10011  1.00000E+00  8.88244E+00 -1.00000E+00  2.01839E-01
      21    -1     0     0   511   501  0.000000000E+00  0.000000000E+00  2.994079469E+00  2.994079469E+00  0.000000000E+00  0.00000E+00  9.000E+00
       2    -1     0     0   501     0  0.000000000E+00  0.000000000E+00 -6.337263004E+02  6.337263004E+02  0.000000000E+00  0.00000E+00  9.000E+00
      23     2     1     2     0     0  1.291316615E+00 -8.788076517E+00 -6.266449414E+02  6.269426684E+02  1.715602104E+01  0.00000E+00  9.000E+00
      11     1     3     3     0     0 -7.145281231E+00 -7.757094157E+00 -2.938105052E+02  2.939997287E+02  5.110220827E-04  0.00000E+00  9.000E+00
     -11     1     3     3     0     0  8.436597846E+00 -1.030982360E+00 -3.328344363E+02  3.329429397E+02  5.109967275E-04  0.00000E+00  9.000E+00
       2     1     1     2   511     0 -1.291316615E+00  8.788076517E+00 -4.087279472E+00  9.777711437E+00  5.210631204E-07  0.00000E+00  9.000E+00
</event>
<event>
      6  10011  1.00000E+00  2.39343E+01 -1.00000E+00  1.60143E-01
      21    -1     0     0   511   501  0.000000000E+00  0.000000000E+00  3.442679208E+01  3.442679208E+01  0.000000000E+00  0.00000E+00  9.000E+00
       2    -1     0     0   501     0  0.000000000E+00  0.000000000E+00 -6.891043021E+02  6.891043021E+02  0.000000000E+00  0.00000E+00  9.000E+00
      23     2     1     2     0     0  1.694085521E+01  1.690738743E+01 -6.827507000E+02  6.866399527E+02  6.894239644E+01  0.00000E+00  9.000E+00
      11     1     3     3     0     0 -1.887340910E+01 -1.485707669E+01 -2.872900181E+02  2.882923738E+02  5.109752855E-04  0.00000E+00  9.000E+00
     -11     1     3     3     0     0  3.581426432E+01  3.176446412E+01 -3.954606819E+02  3.983475789E+02  5.110004888E-04  0.00000E+00  9.000E+00
       2     1     1     2   511     0 -1.694085521E+01 -1.690738743E+01  2.807318995E+01  3.689114147E+01  2.199436126E-06  0.00000E+00  9.000E+00
</event>
<event>
      6  10011  1.00000E+00  7.32078E+00 -1.00000E+00  2.12770E-01
      21    -1     0     0   511   501  0.000000000E+00  0.000000000E+00  7.961987167E+01  7.961987167E+01  0.000000000E+00  0.00000E+00  9.000E+00
       5    -1     0     0   501     0  0.000000000E+00  0.000000000E+00 -4.390878549E+00  4.390878549E+00  0.000000000E+00  0.00000E+00  9.000E+00
      23     2     1     2     0     0 -1.567132436E+00 -7.151074956E+00  2.579344392E+01  3.403608362E+01  2.096567341E+01  0.00000E+00  9.000E+00
      11     1     3     3     0     0 -5.798790576E+00 -6.597126260E+00  2.791917899E+01  2.926821831E+01  5.109990455E-04  0.00000E+00  9.000E+00
     -11     1     3     3     0     0  4.231658140E+00 -5.539486961E-01 -2.125735072E+00  4.767865311E+00  5.109989194E-04  0.00000E+00  9.000E+00
       5     1     1     2   511     0  1.567132436E+00  7.151074956E+00  4.943554921E+01  4.997466661E+01  4.719223864E-07  0.00000E+00  9.000E+00
</event>
<event>
      6  10011  1.00000E+00  5.63100E+00 -1.00000E+00  2.29758E-01
      21    -1     0     0   501   511  0.000000000E+00  0.000000000E+00  1.877378702E+01  1.877378702E+01  0.000000000E+00  0.00000E+00  9.000E+00
      -2    -1     0     0     0   501  0.000000000E+00  0.000000000E+00 -1.085882622E+01  1.085882622E+01  0.000000000E+00  0.00000E+00  9.000E+00
      23     2     1     2     0     0 -5.192988939E+00  2.177379213E+00  5.758301197E-01  2.038215631E+01  1.958041372E+01  0.00000E+00  9.000E+00
      11     1     3     3     0     0 -5.901326881E+00  4.139693688E+00 -8.456549156E+00  1.111197312E+01  5.109988622E-04  0.00000E+00  9.000E+00
     -11     1     3     3     0     0  7.083379427E-01 -1.962314475E+00  9.032379276E+00  9.270183190E+00  5.109988303E-04  0.00000E+00  9.000E+00
      -2     1     1     2     0   511  5.192988939E+00 -2.177379213E+00  7.339130671E+00  9.250456927E+00  7.363929376E-08  0.00000E+00  9.000E+00
</event>
<event>
      6  10011  1.00000E+00  2.04359E+00 -1.00000E+00  3.58548E-01
       2    -1     0     0   501     0  0.000000000E+00  0.000000000E+00  4.872682986E+01  4.872682986E+01  0.000000000E+00  0.00000E+00  9.000E+00
      -2    -1     0     0     0   511  0.000000000E+00  0.000000000E+00 -2.544238055E+00  2.544238055E+00  0.000000000E+00  0.00000E+00  9.000E+00
      23     2     1     2     0     0 -4.578693756E-01 -1.991638686E+00  4.288415566E+01  4.739086817E+01  2.006657197E+01  0.00000E+00  9.000E+00
      11     1     3     3     0     0  9.555184479E-01  7.463427226E+00  3.214072973E+01  3.300972992E+01  5.109991591E-04  0.00000E+00  9.000E+00
     -11     1     3     3     0     0 -1.413387823E+00 -9.455065911E+00  1.074342593E+01  1.438113825E+01  5.109989231E-04  0.00000E+00  9.000E+00
      21     1     1     2   501   511  4.578693756E-01  1.991638686E+00  3.298436142E+00  3.880199737E+00  1.513220073E-08  0.00000E+00  9.000E+00
</event>
<event>
      6  10011  1.00000E+00  9.09229E+00 -1.00000E+00  2.00598E-01
       1    -1     0     0   501     0  0.000000000E+00  0.000000000E+00  6.036951656E+01  6.036951656E+01  0.000000000E+00  0.00000E+00  9.000E+00
      21    -1     0     0   511   501  0.000000000E+00  0.000000000E+00 -1.336459004E+01  1.336459004E+01  0.000000000E+00  0.00000E+00  9.000E+00
      23     2     1     2     0     0  1.577981034E+00 -8.954314046E+00 -4.817742818E+00  2.111986118E+01  1.844364731E+01  0.00000E+00  9.000E+00
      11     1     3     3     0     0 -7.884478769E+00 -2.335256580E+00 -4.899160355E+00  9.571844190E+00  5.109989274E-04  0.00000E+00  9.000E+00
     -11     1     3     3     0     0  9.462459802E+00 -6.619057466E+00  8.141753725E-02  1.154801699E+01  5.109989327E-04  0.00000E+00  9.000E+00
       1     1     1     2   511     0 -1.577981034E+00  8.954314046E+00  5.182266933E+01  5.261424542E+01  4.346952482E-07  0.00000E+00  9.000E+00
</event>
<event>
      6  10011  1.00000E+00  9.25543E+00 -1.00000E+00  1.99663E-01
      -1    -1     0     0     0   501  0.000000000E+00  0.000000000E+00  1.225567550E+02  1.225567550E+02  0.000000000E+00  0.00000E+00  9.000E+00
       1    -1     0     0   511     0  0.000000000E+00  0.000000000E+00 -3.621896203E+00  3.621896203E+00  0.000000000E+00  0.00000E+00  9.000E+00
      23     2     1     2     0     0 -7.051470208E+00 -5.994982951E+00  9.346594180E+01  9.908014966E+01  3.154886255E+01  0.00000E+00  9.000E+00
      11     1     3     3     0     0 -6.004166933E+00 -1.363830342E+00  7.045209763E-01  6.197290039E+00  5.109987741E-04  0.00000E+00  9.000E+00
     -11     1     3     3     0     0 -1.047303276E+00 -4.631152610E+00  9.276142082E+01  9.288285963E+01  5.109992078E-04  0.00000E+00  9.000E+00
      21     1     1     2   511   501  7.051470208E+00  5.994982951E+00  2.546891699E+01  2.709850153E+01  3.210672949E-07  0.00000E+00  9.000E+00
</event>
<event>
      6  10011  1.00000E+00  3.52025E+01 -1.00000E+00  1.48335E-01
      -1    -1     0     0     0   511  0.000000000E+00  0.000000000E+00  1.236463350E+02  1.236463350E+02  0.000000000E+00  0.00000E+00  9.000E+00
       1    -1     0     0   501     0  0.000000000E+00  0.000000000E+00 -3.590582073E+01  3.590582073E+01  0.000000000E+00  0.00000E+00  9.000E+00
      23     2     1     2     0     0 -1.663318213E+01  3.102504727E+01  6.428534791E+01  1.172513149E+02  9.152075494E+01  0.00000E+00  9.000E+00
      11     1     3     3     0     0 -5.185538905E+01  2.794958350E+01  2.388876166E+01  6.356755089E+01  5.109983660E-04  0.00000E+00  9.000E+00
     -11     1     3     3     0     0  3.522220692E+01  3.075463769E+00  4.039658625E+01  5.368376401E+01  5.109992378E-04  0.00000E+00  9.000E+00
      21     1     1     2   501   511  1.663318213E+01 -3.102504727E+01  2.345516638E+01  4.230084084E+01  7.511426902E-07  0.00000E+00  9.000E+00
</event>
<event>
      6  10011  1.00000E+00  1.44996E+01 -1.00000E+00  1.78735E-01
      21    -1     0     0   511   501  0.000000000E+00  0.000000000E+00  4.028652650E+00  4.028652650E+00  0.000000000E+00  0.00000E+00  9.000E+00
       2    -1     0     0   501     0  0.000000000E+00  0.000000000E+00 -8.625870806E+01  8.625870806E+01  0.000000000E+00  0.00000E+00  9.000E+00
      23     2     1     2     0     0 -1.431664034E+01 -2.295819200E+00 -4.706685222E+01  5.225201090E+01  1.745700687E+01  0.00000E+00  9.000E+00
      11     1     3     3     0     0 -1.767310796E+01 -4.267776477E+00 -3.323692162E+01  3.788463567E+01  5.109983790E-04  0.00000E+00  9.000E+00
     -11     1     3     3     0     0  3.356467615E+00  1.971957277E+00 -1.382993060E+01  1.436737523E+01  5.109990275E-04  0.00000E+00  9.000E+00
       2     1     1     2   511     0  1.431664034E+01  2.295819200E+00 -3.516320319E+01  3.803534981E+01  1.769414855E-07  0.00000E+00  9.000E+00
</event>
<event>
      6  10011  1.00000E+00  1.58008E+00 -1.00000E+00  4.18444E-01
      -2    -1     0     0     0   501  0.000000000E+00  0.000000000E+00  1.517125098E-01  1.517125098E-01  0.000000000E+00  0.00000E+00  9.000E+00
       2    -1     0     0   511     0  0.000000000E+00  0.000000000E+00 -7.686689090E+02  7.686689090E+02  0.000000000E+00  0.00000E+00  9.000E+00
      23     2     1     2     0     0 -6.156738690E-01 -1.455202199E+00 -6.519370831E+02  6.522298007E+02  1.947449316E+01  0.00000E+00  9.000E+00
      11     1     3     3     0     0  5.090441931E+00 -4.881424003E+00 -5.629433925E+02  5.629875701E+02  5.109468407E-04  0.00000E+00  9.000E+00
     -11     1     3     3     0     0 -5.706115800E+00  3.426221803E+00 -8.899369061E+01  8.924223060E+01  5.109800520E-04  0.00000E+00  9.000E+00
      21     1     1     2   511   501  6.156738690E-01  1.455202199E+00 -1.165801134E+02  1.165908209E+02  8.719407820E-07  0.00000E+00  9.000E+00
</event>
<event>
      6  10011  1.00000E+00  1.13252E+01 -1.00000E+00  1.89655E-01
       2    -1     0     0   501     0  0.000000000E+00  0.000000000E+00  8.556300576E+02  8.556300576E+02  0.000000000E+00  0.00000E+00  9.000E+00
      21    -1     0     0   511   501  0.000000000E+00  0.000000000E+00 -5.195129035E-01  5.195129035E-01  0.000000000E+00  0.00000E+00  9.000E+00
      23     2     1     2     0     0 -8.258936096E+00 -7.749245844E+00  5.646324968E+02  5.654508310E+02  2.822277457E+01  0.00000E+00  9.000E+00
      11     1     3     3     0     0 -1.118420270E+01  5.592329033E+00  1.290873416E+02  1.296915660E+02  5.110142788E-04  0.00000E+00  9.000E+00
     -11     1     3     3     0     0  2.925266604E+00 -1.334157488E+01  4.355451552E+02  4.357592650E+02  5.109174418E-04  0.00000E+00  9.000E+00
       2     1     1     2   511     0  8.258936096E+00  7.749245844E+00  2.904780479E+02  2.906987395E+02  4.162948153E-06  0.00000E+00  9.000E+00
</event>
<event>
      6  10011  1.00000E+00  9.45747E+00 -1.00000E+00  1.98540E-01
      21    -1     0     0   501   511  0.000000000E+00  0.000000000E+00  1.378397804E+01  1.378397804E+01  0.000000000E+00  0.00000E+00  9.000E+00
      -1    -1     0     0     0   501  0.000000000E+00  0.000000000E+00 -1.866103372E+02  1.866103372E+02  0.000000000E+00  0.00000E+00  9.000E+00
      23     2     1     2     0     0  8.826610850E+00 -3.396273979E+00 -1.615169927E+02  1.856516728E+02  9.104592771E+01  0.00000E+00  9.000E+00
      11     1     3     3     0     0  3.155936741E+01  3.154579438E+00 -1.586865936E+02  1.618251527E+02  5.110011371E-04  0.00000E+00  9.000E+00
     -11     1     3     3     0     0 -2.273275656E+01 -6.550853417E+00 -2.830399045E+00  2.382652011E+01  5.109990792E-04  0.00000E+00  9.000E+00
      -1     1     1     2     0   511 -8.826610850E+00  3.396273979E+00 -1.130936644E+01  1.474264242E+01  1.080655285E-07  0.00000E+00  9.000E+00
</event>
<event>
      6  10011  1.00000E+00  4.02297E+00 -1.00000E+00  2.62778E-01
      21    -1     0     0   511   501  0.000000000E+00  0.000000000E+00  9.019187406E+01  9.019187406E+01  0.000000000E+00  0.00000E+00  9.000E+00
       4    -1     0     0   501     0  0.000000000E+00  0.000000000E+00 -3.089231295E+00  3.089231295E+00  0.000000000E+00  0.00000E+00  9.000E+00
      23     2     1     2     0     0 -1.787775571E-01  4.018994851E+00  3.127177590E+01  3.730548587E+01  1.993968474E+01  0.00000E+00  9.000E+00
      11     1     3     3     0     0  2.981762002E+00  2.062506370E+00 -1.784448757E+00  4.040927467E+00  5.109989233E-04  0.00000E+00  9.000E+00
     -11     1     3     3     0     0 -3.160539559E+00  1.956488480E+00  3.305622465E+01  3.326455841E+01  5.109987200E-04  0.00000E+00  9.000E+00
       4     1     1     2   511     0  1.787775571E-01 -4.018994851E+00  5.583086687E+01  5.597561948E+01  3.417535109E-07  0.00000E+00  9.000E+00
</event>
<event>
      6  10011  1.00000E+00  1.05877E+01 -1.00000E+00  1.92877E-01
       2    -1     0     0   511     0  0.000000000E+00  0.000000000E+00  7.368889620E+02  7.368889620E+02  0.000000000E+00  0.00000E+00  9.000E+00
      -2    -1     0     0     0   501  0.000000000E+00  0.000000000E+00 -9.202728104E-01  9.202728104E-01  0.000000000E+00  0.00000E+00  9.000E+00
      23     2     1     2     0     0 -9.548058538E+00  4.575329115E+00  1.527393079E+02  1.544837594E+02  2.058729423E+01  0.00000E+00  9.000E+00
      11     1     3     3     0     0 -1.132568108E+01 -3.762477669E+00  5.055926892E+01  5.194869550E+01  5.110003606E-04  0.00000E+00  9.000E+00
     -11     1     3     3     0     0  1.777622539E+00  8.337806784E+00  1.021800390E+02  1.025350639E+02  5.110010024E-04  0.00000E+00  9.000E+00
      21     1     1     2   511   501  9.548058538E+00 -4.575329115E+00  5.832293812E+02  5.833254754E+02  7.398662877E-06  0.00000E+00  9.000E+00
</event>
<event>
      6  10011  1.00000E+00  9.55474E+00 -1.00000E+00  1.98012E-01
      -2    -1     0     0     0   511  0.000000000E+00  0.000000000E+00  5.100715305E-01  5.100715305E-01  0.000000000E+00  0.00000E+00  9.000E+00
       2    -1     0     0   501     0  0.000000000E+00  0.000000000E+00 -7.188352982E+02  7.188352982E+02  0.000000000E+00  0.00000E+00  9.000E+00
      23     2     1     2     0     0  7.244111964E+00  6.230244921E+00 -5.743619448E+02  5.750653654E+02  2.678129553E+01  0.00000E+00  9.000E+00
      11     1     3     3     0     0  1.343935941E+00  1.712593497E-01 -1.111133081E+00  1.752173097E+00  5.109998826E-04  0.00000E+00  9.000E+00
     -11     1     3     3     0     0  5.900176023E+00  6.058985571E+00 -5.732508117E+02  5.733131923E+02  5.109481757E-04  0.00000E+00  9.000E+00
      21     1     1     2   501   511 -7.244111964E+00 -6.230244921E+00 -1.439632819E+02  1.442800043E+02  1.099863177E-06  0.00000E+00  9.000E+00
</event>
<event>
      6  10011  1.00000E+00  6.41137E+00 -1.00000E+00  2.21015E-01
      -4    -1     0     0     0   501  0.000000000E+00  0.000000000E+00  1.400394930E+00  1.400394930E+00  0.000000000E+00  0.00000E+00  9.000E+00
      21    -1     0     0   501   511  0.000000000E+00  0.000000000E+00 -1.142082218E+02  1.142082218E+02  0.000000000E+00  0.00000E+00  9.000E+00
      23     2     1     2     0     0  3.039805819E+00 -5.644927888E+00 -8.927907133E+01  9.122198171E+01  1.759521923E+01  0.00000E+00  9.000E+00
      11     1     3     3     0     0 -4.342213116E+00  4.445442059E+00 -3.108239068E+01  3.169750432E+01  5.109988943E-04  0.00000E+00  9.000E+00
     -11     1     3     3     0     0  7.382018935E+00 -1.009036995E+01 -5.819668065E+01  5.952447739E+01  5.109977784E-04  0.00000E+00  9.000E+00
      -4     1     1     2     0   511 -3.039805819E+00  5.644927888E+00 -2.352875555E+01  2.438663503E+01  1.628936165E-07  0.00000E+00  9.000E+00
</event>
<event>
      6  10011  1.00000E+00  9.13979E+00 -1.00000E+00  2.00323E-01
      -1    -1     0     0     0   501  0.000000000E+00  0.000000000E+00  1.372329699E+00  1.372329699E+00  0.000000000E+00  0.00000E+00  9.000E+00
       1    -1     0     0   511     0  0.000000000E+00  0.000000000E+00 -1.764371771E+02  1.764371771E+02  0.000000000E+00  0.00000E+00  9.000E+00
      23     2     1     2     0     0 -8.897672416E+00  2.089776727E+00 -9.197363972E+01  9.421713553E+01  1.828065869E+01  0.00000E+00  9.000E+00
      11     1     3     3     0     0 -1.309173794E+01  1.324222995E+00 -8.522352220E+01  8.623338046E+01  5.109971581E-04  0.00000E+00  9.000E+00
     -11     1     3     3     0     0  4.194065529E+00  7.655537317E-01 -6.750117520E+00  7.983755067E+00  5.109986605E-04  0.00000E+00  9.000E+00
      21     1     1     2   511   501  8.897672416E+00 -2.089776727E+00 -8.309120771E+01  8.359237130E+01  1.556868301E-06  0.00000E+00  9.000E+00
</event>
<event>
      6  10011  1.00000E+00  1.95642E+01 -1.00000E+00  1.67120E-01
       2    -1     0     0   501     0  0.000000000E+00  0.000000000E+00  3.854736494E+02  3.854736494E+02  0.000000000E+00  0.00000E+00  9.000E+00
      21    -1     0     0   511   501  0.000000000E+00  0.000000000E+00 -1.378753309E+01  1.378753309E+01  0.000000000E+00  0.00000E+00  9.000E+00
      23     2     1     2     0     0  1.473448980E+00 -1.950861575E+01  3.679300248E+02  3.793397025E+02  9.024050992E+01  0.00000E+00  9.000E+00
      11     1     3     3     0     0  7.560928704E+00 -3.846391734E+01  3.510678466E+02  3.532495910E+02  5.110148454E-04  0.00000E+00  9.000E+00
     -11     1     3     3     0     0 -6.087479724E+00  1.895530160E+01  1.686217812E+01  2.609011152E+01  5.109997129E-04  0.00000E+00  9.000E+00
       2     1     1     2   511     0 -1.473448980E+00  1.950861575E+01  3.756091509E+00  1.992147996E+01  1.053671213E-08  0.00000E+00  9.000E+00
</event>
<event>
      6  10011  1.00000E+00  6.60591E+00 -1.00000E+00  2.19099E-01
       2    -1     0     0   501     0  0.000000000E+00  0.000000000E+00  5.198213188E+02  5.198213188E+02  0.000000000E+00  0.00000E+00  9.000E+00
      21    -1     0     0   511   501  0.000000000E+00  0.000000000E+00 -7.747801155E-01  7.747801155E-01  0.000000000E+00  0.00000E+00  9.000E+00
      23     2     1     2     0     0  6.394766823E+00 -1.656788690E+00  1.564644825E+02  1.579538710E+02  2.060711267E+01  0.00000E+00  9.000E+00
      11     1     3     3     0     0  6.095135422E-01  5.391293698E-01 -4.415846118E-01  9.258317698E-01  5.109989152E-04  0.00000E+00  9.000E+00
     -11     1     3     3     0     0  5.785253281E+00 -2.195918060E+00  1.569060671E+02  1.570280393E+02  5.109933294E-04  0.00000E+00  9.000E+00
       2     1     1     2   511     0 -6.394766823E+00  1.656788690E+00  3.625820562E+02  3.626422279E+02  1.612633378E-06  0.00000E+00  9.000E+00
</event>
<event>
      6  10011  1.00000E+00  3.62878E+01 -1.00000E+00  1.47481E-01
      21    -1     0     0   511   501  0.000000000E+00  0.000000000E+00  8.587328592E+00  8.587328592E+00  0.000000000E+00  0.00000E+00  9.000E+00
       2    -1     0     0   501     0  0.000000000E+00  0.000000000E+00 -6.497281249E+02  6.497281249E+02  0.000000000E+00  0.00000E+00  9.000E+00
      23     2     1     2     0     0 -3.319330887E+01 -1.466321985E+01 -5.828487017E+02  5.896512411E+02  8.160374555E+01  0.00000E+00  9.000E+00
      11     1     3     3     0     0 -2.580524094E+01 -5.224409456E+00 -5.743606074E+02  5.749637486E+02  5.110384756E-04  0.00000E+00  9.000E+00
     -11     1     3     3     0     0 -7.388067936E+00 -9.438810395E+00 -8.488094279E+00  1.468749244E+01  5.109988841E-04  0.00000E+00  9.000E+00
       2     1     1     2   511     0  3.319330887E+01  1.466321985E+01 -5.829209466E+01  6.866421244E+01  1.621695502E-06  0.00000E+00  9.000E+00
</event>
<event>
      6  10011  1.00000E+00  1.11765E+02 -1.00000E+00  1.21672E-01
      -2    -1     0     0     0   511  0.000000000E+00  0.000000000E+00  1.251466965E+02  1.251466965E+02  0.000000000E+00  0.00000E+00  9.000E+00
       2    -1     0     0   501     0  0.000000000E+00  0.000000000E+00 -2.751456065E+02  2.751456065E+02  0.000000000E+00  0.00000E+00  9.000E+00
      23     2     1     2     0     0  1.036564443E+02 -4.179356602E+01 -2.237550334E+02  2.663844005E+02  9.166773294E+01  0.00000E+00  9.000E+00
      11     1     3     3     0     0  3.583168401E+00  2.421986091E+01 -3.313646292E+01  4.120031473E+01  5.109997274E-04  0.00000E+00  9.000E+00
     -11     1     3     3     0     0  1.000732759E+02 -6.601342693E+01 -1.906185705E+02  2.251840858E+02  5.109927889E-04  0.00000E+00  9.000E+00
      21     1     1     2   501   511 -1.036564443E+02  4.179356602E+01  7.375612344E+01  1.339079025E+02  8.148087927E-07  0.00000E+00  9.000E+00
</event>
<event>
      6  10011  1.00000E+00  5.04070E+00 -1.00000E+00  2.37815E-01
      -2    -1     0     0     0   511  0.000000000E+00  0.000000000E+00  1.200465615E+01  1.200465615E+01  0.000000000E+00  0.00000E+00  9.000E+00
       2    -1     0     0   501     0  0.000000000E+00  0.000000000E+00 -2.105365290E+02  2.105365290E+02  0.000000000E+00  0.00000E+00  9.000E+00
      23     2     1     2     0     0  4.361315458E+00 -2.527371868E+00 -1.909431965E+02  2.134309332E+02  9.522631095E+01  0.00000E+00  9.000E+00
      11     1     3     3     0     0  1.373733967E+01 -4.743151467E+01 -1.040133516E+02  1.151400903E+02  5.109964798E-04  0.00000E+00  9.000E+00
     -11     1     3     3     0     0 -9.376024212E+00  4.490414281E+01 -8.692984492E+01  9.829084296E+01  5.109919850E-04  0.00000E+00  9.000E+00
      21     1     1     2   501   511 -4.361315458E+00  2.527371868E+00 -7.588676367E+00  9.110251922E+00  8.271486801E-08  0.00000E+00  9.000E+00
</event>
<event>
      6  10011  1.00000E+00  1.76494E+01 -1.00000E+00  1.70933E-01
       1    -1     0     0   511     0  0.000000000E+00  0.000000000E+00  5.858783111E+00  5.858783111E+00  0.000000000E+00  0.00000E+00  9.000E+00
      -1    -1     0     0     0   501  0.000000000E+00  0.000000000E+00 -5.245789322E+02  5.245789322E+02  0.000000000E+00  0.00000E+00  9.000E+00
      23     2     1     2     0     0  1.580464140E+01 -7.855870463E+00 -4.834325822E+02  4.909825032E+02  8.393602005E+01  0.00000E+00  9.000E+00
      11     1     3     3     0     0  2.836421614E-01  3.949402083E+00  2.484362427E+00  4.674429016E+00  5.109991112E-04  0.00000E+00  9.000E+00
     -11     1     3     3     0     0  1.552099924E+01 -1.180527255E+01 -4.859169447E+02  4.863080742E+02  5.109866532E-04  0.00000E+00  9.000E+00
      21     1     1     2   511   501 -1.580464140E+01  7.855870463E+00 -3.528756683E+01  3.945521212E+01  6.379715988E-07  0.00000E+00  9.000E+00
</event>
<event>
      6  10011  1.00000E+00  2.32246E+01 -1.00000E+00  1.61146E-01
      21    -1     0     0   501   511  0.000000000E+00  0.000000000E+00  3.878497181E+00  3.878497181E+00  0.000000000E+00  0.00000E+00  9.000E+00
      -4    -1     0     0     0   501  0.000000000E+00  0.000000000E+00 -3.023713461E+02  3.023713461E+02  0.000000000E+00  0.00000E+00  9.000E+00
      23     2     1     2     0     0 -1.212269323E+01 -1.980967521E+01 -2.551416384E+02  2.570694572E+02  2.116759902E+01  0.00000E+00  9.000E+00
      11     1     3     3     0     0 -6.740804766E+00  1.784672857E+00 -2.862032383E+01  2.945753626E+01  5.109982785E-04  0.00000E+00  9.000E+00
     -11     1     3     3     0     0 -5.381888461E+00 -2.159434806E+01 -2.265213146E+02  2.276119209E+02  5.109972385E-04  0.00000E+00  9.000E+00
      -4     1     1     2     0   511  1.212269323E+01  1.980967521E+01 -4.335121048E+01  4.918038606E+01  9.397778546E-07  0.00000E+00  9.000E+00
</event>
<event>
      6  10011  1.00000E+00  7.92301E+00 -1.00000E+00  2.08155E-01
       3    -1     0     0   501     0  0.000000000E+00  0.000000000E+00  1.145487012E+02  1.145487012E+02  0.000000000E+00  0.00000E+00  9.000E+00
      21    -1     0     0   511   501  0.000000000E+00  0.000000000E+00 -1.557194525E+01  1.557194525E+01  0.000000000E+00  0.00000E+00  9.000E+00
      23     2     1     2     0     0  5.902572908E+00  5.285242115E+00  8.955407199E+01  1.178096301E+02  7.613411177E+01  0.00000E+00  9.000E+00
      11     1     3     3     0     0  2.741672963E+01 -6.790661170E+00  8.873777898E+01  9.312455939E+01  5.109990926E-04  0.00000E+00  9.000E+00
     -11     1     3     3     0     0 -2.151415672E+01  1.207590328E+01  8.162930117E-01  2.468507068E+01  5.109985924E-04  0.00000E+00  9.000E+00
       3     1     1     2   511     0 -5.902572908E+00 -5.285242115E+00  9.422683929E+00  1.231101635E+01  1.515511096E-07  0.00000E+00  9.000E+00
</event>
<event>
      6  10011  1.00000E+00  1.57464E+02 -1.00000E+00  1.15544E-01
       2    -1     0     0   501     0  0.000000000E+00  0.000000000E+00  1.933092882E+02  1.933092882E+02  0.000000000E+00  0.00000E+00  9.000E+00
      21    -1     0     0   511   501  0.000000000E+00  0.000000000E+00 -1.511180295E+02  1.511180295E+02  0.000000000E+00  0.00000E+00  9.000E+00
      23     2     1     2     0     0 -7.654546011E+01 -1.376070066E+02  3.498982403E+01  1.867987785E+02  9.420509620E+01  0.00000E+00  9.000E+00
      11     1     3     3     0     0 -5.175098085E+01 -2.136892097E+01 -1.484009219E+01  5.792256157E+01  5.109989365E-04  0.00000E+00  9.000E+00
     -11     1     3     3     0     0 -2.479447926E+01 -1.162380856E+02  4.982991622E+01  1.288762169E+02  5.109981121E-04  0.00000E+00  9.000E+00
       2     1     1     2   511     0  7.654546011E+01  1.376070066E+02  7.201434636E+00  1.576285392E+02  1.556985292E-06  0.00000E+00  9.000E+00
</event>
<event>
      6  10011  1.00000E+00  5.13018E+00 -1.00000E+00  2.36495E-01
      -1    -1     0     0     0   501  0.000000000E+00  0.000000000E+00  1.699463583E+01  1.699463583E+01  0.000000000E+00  0.00000E+00  9.000E+00
       1    -1     0     0   511     0  0.000000000E+00  0.000000000E+00 -1.823326079E+02  1.823326079E+02  0.000000000E+00  0.00000E+00  9.000E+00
      23     2     1     2     0     0 -4.219018870E+00  2.918663932E+00 -1.282957120E+02  1.619314184E+02  9.866952840E+01  0.00000E+00  9.000E+00
      11     1     3     3     0     0 -1.561227029E+01 -4.201625197E+01 -9.441044345E+01  1.045104791E+02  5.110029795E-04  0.00000E+00  9.000E+00
     -11     1     3     3     0     0  1.139325142E+01  4.493491590E+01 -3.388526854E+01  5.742093930E+01  5.109986931E-04  0.00000E+00  9.000E+00
      21     1     1     2   511   501  4.219018870E+00 -2.918663932E+00 -3.704226008E+01  3.739582532E+01  2.978369011E-07  0.00000E+00  9.000E+00
</event>
<event>
      6  10011  1.00000E+00  1.10492E+01 -1.00000E+00  1.90823E-01
      -1    -1     0     0     0   501  0.000000000E+00  0.000000000E+00  3.806800980E+02  3.806800980E+02  0.000000000E+00  0.00000E+00  9.000E+00
       1    -1     0     0   511     0  0.000000000E+00  0.000000000E+00 -8.183885392E+00  8.183885392E+00  0.000000000E+00  0.00000E+00  9.000E+00
      23     2     1     2     0     0  5.833207416E+00  9.383951923E+00  3.625049392E+02  3.739673258E+02  9.121208784E+01  0.00000E+00  9.000E+00
      11     1     3     3     0     0  3.216178719E+00 -7.817568611E+00 -2.289755028E+00  8.757920010E+00  5.109991315E-04  0.00000E+00  9.000E+00
     -11     1     3     3     0     0  2.617028698E+00  1.720152053E+01  3.647946943E+02  3.652094058E+02  5.109746667E-04  0.00000E+00  9.000E+00
      21     1     1     2   511   501 -5.833207416E+00 -9.383951923E+00  9.991273374E+00  1.489665755E+01  3.128911218E-07  0.00000E+00  9.000E+00
</event>
<event>
      6  10011  1.00000E+00  5.75401E+01 -1.00000E+00  1.35655E-01
       1    -1     0     0   501     0  0.000000000E+00  0.000000000E+00  1.790987102E+02  1.790987102E+02  0.000000000E+00  0.00000E+00  9.000E+00
      21    -1     0     0   511   501  0.000000000E+00  0.000000000E+00 -3.772724175E+01  3.772724175E+01  0.000000000E+00  0.00000E+00  9.000E+00
      23     2     1     2     0     0 -4.830490905E+01 -3.126497789E+01  8.842392901E+01  1.386319304E+02  8.993974545E+01  0.00000E+00  9.000E+00
      11     1     3     3     0     0 -3.042169022E+01 -5.185336295E+00  1.002334163E+02  1.048766165E+02  5.109988419E-04  0.00000E+00  9.000E+00
     -11     1     3     3     0     0 -1.788321883E+01 -2.607964159E+01 -1.180948730E+01  3.375531383E+01  5.109988203E-04  0.00000E+00  9.000E+00
       1     1     1     2   511     0  4.830490905E+01  3.126497789E+01  5.294753946E+01  7.819402161E+01  1.186491802E-06  0.00000E+00  9.000E+00
</event>
<event>
      6  10011  1.00000E+00  6.52320E+00 -1.00000E+00  2.19902E-01
       3    -1     0     0   501     0  0.000000000E+00  0.000000000E+00  2.581538591E+02  2.581538591E+02  0.000000000E+00  0.00000E+00  9.000E+00
      -3    -1     0     0     0   511  0.000000000E+00  0.000000000E+00 -1.146397939E+01  1.146397939E+01  0.000000000E+00  0.00000E+00  9.000E+00
      23     2     1     2     0     0  3.708281377E+00  5.366639020E+00  2.472621312E+02  2.630695840E+02  8.957953070E+01  0.00000E+00  9.000E+00
      11     1     3     3     0     0 -1.794512540E+01  2.522326559E+01  2.766599456E+01  4.151683885E+01  5.109974109E-04  0.00000E+00  9.000E+00
     -11     1     3     3     0     0  2.165340678E+01 -1.985662657E+01  2.195961367E+02  2.215527451E+02  5.110028909E-04  0.00000E+00  9.000E+00
      21     1     1     2   501   511 -3.708281377E+00 -5.366639020E+00 -5.722515172E-01  6.548254496E+00  1.516385425E-07  0.00000E+00  9.000E+00
</event>
<event>
      6  10011  1.00000E+00  1.44144E+01 -1.00000E+00  1.78980E-01
       1    -1     0     0   501     0  0.000000000E+00  0.000000000E+00  4.325754407E+02  4.325754407E+02  0.000000000E+00  0.00000E+00  9.000E+00
      21    -1     0     0   511   501  0.000000000E+00  0.000000000E+00 -4.883330416E+01  4.883330416E+01  0.000000000E+00  0.00000E+00  9.000E+00
      23     2     1     2     0     0  3.777357595E+00  1.391065480E+01  4.264801853E+02  4.363053574E+02  9.093537119E+01  0.00000E+00  9.000E+00
      11     1     3     3     0     0 -3.450972815E+01  8.646724143E+00  7.849813542E+01  8.618378293E+01  5.109922666E-04  0.00000E+00  9.000E+00
     -11     1     3     3     0     0  3.828708575E+01  5.263930653E+00  3.479820499E+02  3.501215745E+02  5.109863056E-04  0.00000E+00  9.000E+00
       1     1     1     2   511     0 -3.777357595E+00 -1.391065480E+01 -4.273804874E+01  4.510338743E+01  1.409085823E-06  0.00000E+00  9.000E+00
</event>
<event>
      6  10011  1.00000E+00  1.09172E+00 -1.00000E+00  5.90570E-01
      -1    -1     0     0     0   511  0.000000000E+00  0.000000000E+00  2.142917042E+00  2.142917042E+00  0.000000000E+00  0.00000E+00  9.000E+00
       1    -1     0     0   501     0  0.000000000E+00  0.000000000E+00 -1.255009195E+03  1.255009195E+03  0.000000000E+00  0.00000E+00  9.000E+00
      23     2     1     2     0     0 -4.943006704E-01  9.734072973E-01 -1.252379132E+03  1.255956635E+03  9.472267656E+01  0.00000E+00  9.000E+00
      11     1     3     3     0     0  3.236973717E+01 -2.538479445E+01 -9.198687304E+02  9.207880694E+02  5.106415042E-04  0.00000E+00  9.000E+00
     -11     1     3     3     0     0 -3.286403784E+01  2.635820174E+01 -3.325104021E+02  3.351685654E+02  5.110087830E-04  0.00000E+00  9.000E+00
      21     1     1     2   501   511  4.943006704E-01 -9.734072973E-01 -4.871455265E-01  1.195477178E+00  1.022448009E-07  0.00000E+00  9.000E+00
</event>
<event>
      6  10011  1.00000E+00  1.25148E+00 -1.00000E+00  5.16612E-01
      -2    -1     0     0     0   501  0.000000000E+00  0.000000000E+00  4.842558793E-01  4.842558793E-01  0.000000000E+00  0.00000E+00  9.000E+00
       2    -1     0     0   511     0  0.000000000E+00  0.000000000E+00 -7.917580316E+02  7.917580316E+02  0.000000000E+00  0.00000E+00  9.000E+00
      23     2     1     2     0     0  6.616179166E-01 -1.062296969E+00 -7.380404242E+02  7.389942271E+02  3.751311526E+01  0.00000E+00  9.000E+00
      11     1     3     3     0     0 -5.567089357E+00 -1.746404708E+01 -2.677703058E+02  2.683969487E+02  5.110674227E-04  0.00000E+00  9.000E+00
     -11     1     3     3     0     0  6.228707273E+00  1.640175011E+01 -4.702701184E+02  4.705972784E+02  5.109850263E-04  0.00000E+00  9.000E+00
      21     1     1     2   511   501 -6.616179166E-01  1.062296969E+00 -5.323335152E+01  5.324806031E+01  2.731427965E-07  0.00000E+00  9.000E+00
</event>
<event>
      6  10011  1.00000E+00  2.19850E+00 -1.00000E+00  3.44731E-01
      21    -1     0     0   501   511  0.000000000E+00  0.000000000E+00  2.741019762E+01  2.741019762E+01  0.000000000E+00  0.00000E+00  9.000E+00
      -4    -1     0     0     0   501  0.000000000E+00  0.000000000E+00 -2.093141635E+01  2.093141635E+01  0.000000000E+00  0.00000E+00  9.000E+00
      23     2     1     2     0     0 -3.758345140E-01  2.166136398E+00 -1.724180573E+01  2.451936290E+01  1.729409997E+01  0.00000E+00  9.000E+00
      11     1     3     3     0     0 -2.580068906E+00  5.944726784E+00  2.535175748E-01  6.485430095E+00  5.109989422E-04  0.00000E+00  9.000E+00
     -11     1     3     3     0     0  2.204234392E+00 -3.778590385E+00 -1.749532330E+01  1.803393280E+01  5.109988618E-04  0.00000E+00  9.000E+00
      -4     1     1     2     0   511  3.758345140E-01 -2.166136398E+00  2.372058700E+01  2.382225107E+01  1.277508452E-07  0.00000E+00  9.000E+00
</event>
<event>
      6  10011  1.00000E+00  6.55111E+00 -1.00000E+00  2.19629E-01
      -2    -1     0     0     0   511  0.000000000E+00  0.000000000E+00  1.288295010E+01  1.288295010E+01  0.000000000E+00  0.00000E+00  9.000E+00
       2    -1     0     0   501     0  0.000000000E+00  0.000000000E+00 -2.122194908E+02  2.122194908E+02  0.000000000E+00  0.00000E+00  9.000E+00
      23     2     1     2     0     0 -8.382535653E-01 -6.497256258E+00 -1.986402056E+02  2.185144298E+02  9.081689131E+01  0.00000E+00  9.000E+00
      11     1     3     3     0     0 -1.119352450E+01  3.474436917E+01 -1.477757246E+02  1.522173806E+02  5.110003515E-04  0.00000E+00  9.000E+00
     -11     1     3     3     0     0  1.035527093E+01 -4.124162543E+01 -5.086448099E+01  6.629704918E+01  5.110006087E-04  0.00000E+00  9.000E+00
      21     1     1     2   501   511  8.382535653E-01  6.497256258E+00 -6.963351251E-01  6.588011120E+00  1.720998852E-07  0.00000E+00  9.000E+00
</event>
<event>
      6  10011  1.00000E+00  1.20586E+01 -1.00000E+00  1.86753E-01
       2    -1     0     0   511     0  0.000000000E+00  0.000000000E+00  2.681928308E+02  2.681928308E+02  0.000000000E+00  0.00000E+00  9.000E+00
      -2    -1     0     0     0   501  0.000000000E+00  0.000000000E+00 -2.054028131E+00  2.054028131E+00  0.000000000E+00  0.00000E+00  9.000E+00
      23     2     1     2     0     0 -3.582899365E-01 -1.205330209E+01  1.687038839E+02  1.720685830E+02  3.164152905E+01  0.00000E+00  9.000E+00
      11     1     3     3     0     0  5.841080053E+00  3.950243386E+00  8.943360212E+00  1.138886874E+01  5.109992426E-04  0.00000E+00  9.000E+00
     -11     1     3     3     0     0 -6.199369989E+00 -1.600354548E+01  1.597605237E+02  1.606797143E+02  5.110004054E-04  0.00000E+00  9.000E+00
      21     1     1     2   511   501  3.582899365E-01  1.205330209E+01  9.743491876E+01  9.817827589E+01  1.220440580E-06  0.00000E+00  9.000E+00
</event>
<event>
      6  10011  1.00000E+00  7.49255E+00 -1.00000E+00  2.11394E-01
       2    -1     0     0   501     0  0.000000000E+00  0.000000000E+00  8.834461963E-01  8.834461963E-01  0.000000000E+00  0.00000E+00  9.000E+00
      21    -1     0     0   511   501  0.000000000E+00  0.000000000E+00 -1.332406548E+03  1.332406548E+03  0.000000000E+00  0.00000E+00  9.000E+00
      23     2     1     2     0     0  7.492530760E+00  1.810384370E-02 -1.653841307E+02  1.671269532E+02  2.287726910E+01  0.00000E+00  9.000E+00
      11     1     3     3     0     0  4.095041832E+00 -1.140194823E+01 -7.837360396E+01  7.930444874E+01  5.109976009E-04  0.00000E+00  9.000E+00
     -11     1     3     3     0     0  3.397488927E+00  1.142005207E+01 -8.701052677E+01  8.782250446E+01  5.109959805E-04  0.00000E+00  9.000E+00
       2     1     1     2   511     0 -7.492530760E+00 -1.810384370E-02 -1.166138971E+03  1.166163041E+03  1.402825421E-05  0.00000E+00  9.000E+00
</event>
<event>
      6  10011  1.00000E+00  5.71500E+00 -1.00000E+00  2.28724E-01
       2    -1     0     0   501     0  0.000000000E+00  0.000000000E+00  5.494749894E+01  5.494749894E+01  0.000000000E+00  0.00000E+00  9.000E+00
      21    -1     0     0   511   501  0.000000000E+00  0.000000000E+00 -9.034847798E+00  9.034847798E+00  0.000000000E+00  0.00000E+00  9.000E+00
      23     2     1     2     0     0 -1.797179283E+00 -5.425064213E+00  4.992001157E+01  5.700236732E+01  2.691841655E+01  0.00000E+00  9.000E+00
      11     1     3     3     0     0 -5.703202546E+00  1.004636104E+01  2.169404102E+01  2.457818759E+01  5.109988135E-04  0.00000E+00  9.000E+00
     -11     1     3     3     0     0  3.906023263E+00 -1.547142525E+01  2.822597056E+01  3.242417973E+01  5.109992333E-04  0.00000E+00  9.000E+00
       2     1     1     2   511     0  1.797179283E+00  5.425064213E+00 -4.007360429E+00  6.979979420E+00  1.217221147E-07  0.00000E+00  9.000E+00
</event>
<event>
      6  10011  1.00000E+00  7.77428E+00 -1.00000E+00  2.09242E-01
      21    -1     0     0   511   501  0.000000000E+00  0.000000000E+00  1.050026471E+00  1.050026471E+00  0.000000000E+00  0.00000E+00  9.000E+00
       2    -1     0     0   501     0  0.000000000E+00  0.000000000E+00 -9.061709074E+02  9.061709074E+02  0.000000000E+00  0.00000E+00  9.000E+00
      23     2     1     2     0     0  5.134276746E+00  5.837692124E+00 -8.847521670E+02  8.854190084E+02  3.346616168E+01  0.00000E+00  9.000E+00
      11     1     3     3     0     0 -5.390726450E+00  1.767643274E+01 -4.560338045E+02  4.564080926E+02  5.111423272E-04  0.00000E+00  9.000E+00
     -11     1     3     3     0     0  1.052500320E+01 -1.183874062E+01 -4.287183625E+02  4.290109158E+02  5.111122027E-04  0.00000E+00  9.000E+00
       2     1     1     2   511     0 -5.134276746E+00 -5.837692124E+00 -2.036871390E+01  2.180192545E+01  9.821493140E-07  0.00000E+00  9.000E+00
</event>
<event>
      6  10011  1.00000E+00  1.25637E+01 -1.00000E+00  1.84904E-01
       1    -1     0     0   501     0  0.000000000E+00  0.000000000E+00  9.408619175E+00  9.408619175E+00  0.000000000E+00  0.00000E+00  9.000E+00
      -1    -1     0     0     0   511  0.000000000E+00  0.000000000E+00 -3.199827176E+02  3.199827176E+02  0.000000000E+00  0.00000E+00  9.000E+00
      23     2     1     2     0     0 -5.270190086E+00 -1.140490310E+01 -2.260297017E+02  2.439185239E+02  9.082386000E+01  0.00000E+00  9.000E+00
      11     1     3     3     0     0 -3.275430046E+01 -3.511860539E+01 -1.738037166E+02  1.803160906E+02  5.109980137E-04  0.00000E+00  9.000E+00
     -11     1     3     3     0     0  2.748411037E+01  2.371370229E+01 -5.222598513E+01  6.360243330E+01  5.109993612E-04  0.00000E+00  9.000E+00
      21     1     1     2   501   511  5.270190086E+00  1.140490310E+01 -8.454439671E+01  8.547281283E+01  1.268613139E-06  0.00000E+00  9.000E+00
</event>
<event>
      6  10011  1.00000E+00  2.20569E+00 -1.00000E+00  3.44140E-01
      -2    -1     0     0     0   501  0.000000000E+00  0.000000000E+00  8.852342177E+00  8.852342177E+00  0.000000000E+00  0.00000E+00  9.000E+00
       2    -1     0     0   511     0  0.000000000E+00  0.000000000E+00 -1.123334728E+03  1.123334728E+03  0.000000000E+00  0.00000E+00  9.000E+00
      23     2     1     2     0     0  1.957012452E+00  1.017431347E+00 -2.300881209E+02  2.477900548E+02  9.194837025E+01  0.00000E+00  9.000E+00
      11     1     3     3     0     0  1.912547955E+01 -3.322144271E+01 -1.835826903E+02  1.875421350E+02  5.109920971E-04  0.00000E+00  9.000E+00
     -11     1     3     3     0     0 -1.716846710E+01  3.423887406E+01 -4.650543064E+01  6.024791979E+01  5.109975876E-04  0.00000E+00  9.000E+00
      21     1     1     2   511   501 -1.957012452E+00 -1.017431347E+00 -8.843942645E+02  8.843970150E+02  2.466220959E-06  0.00000E+00  9.000E+00
</event>
<event>
      6  10011  1.00000E+00  2.03610E+01 -1.00000E+00  1.65689E-01
      21    -1     0     0   511   501  0.000000000E+00  0.000000000E+00  2.209711713E+00  2.209711713E+00  0.000000000E+00  0.00000E+00  9.000E+00
       2    -1     0     0   501     0  0.000000000E+00  0.000000000E+00 -3.699579833E+02  3.699579833E+02  0.000000000E+00  0.00000E+00  9.000E+00
      23     2     1     2     0     0  7.880109150E+00 -1.877428587E+01 -2.437994326E+02  2.465576452E+02  3.062579200E+01  0.00000E+00  9.000E+00
      11     1     3     3     0     0 -2.932021746E+00 -2.430183827E+01 -1.519523800E+02  1.539113442E+02  5.109971846E-04  0.00000E+00  9.000E+00
     -11     1     3     3     0     0  1.081213090E+01  5.527552399E+00 -9.184705259E+01  9.264630095E+01  5.110031820E-04  0.00000E+00  9.000E+00
       2     1     1     2   511     0 -7.880109150E+00  1.877428587E+01 -1.239488390E+02  1.256100498E+02  1.239576003E-06  0.00000E+00  9.000E+00
</event>
<event>
      6  10011  1.00000E+00  1.14959E+01 -1.00000E+00  1.88955E-01
      21    -1     0     0   501   511  0.000000000E+00  0.000000000E+00  7.351366902E+02  7.351366902E+02  0.000000000E+00  0.00000E+00  9.000E+00
      -4    -1     0     0     0   501  0.000000000E+00  0.000000000E+00 -3.603868060E+00  3.603868060E+00  0.000000000E+00  0.00000E+00  9.000E+00
      23     2     1     2     0     0  2.164634084E+00 -1.129022699E+01  6.761956555E+02  6.822219164E+02  8.974421334E+01  0.00000E+00  9.000E+00
      11     1     3     3     0     0 -7.639448232E+00 -4.193129036E+01  5.610448567E+02  5.626614662E+02  5.110232089E-04  0.00000E+00  9.000E+00
     -11     1     3     3     0     0  9.804082315E+00  3.064106336E+01  1.151507988E+02  1.195604502E+02  5.109702681E-04  0.00000E+00  9.000E+00
      -4     1     1     2     0   511 -2.164634084E+00  1.129022699E+01  5.533716663E+01  5.651864185E+01  8.796734895E-07  0.00000E+00  9.000E+00
</event>
<event>
      6  10011  1.00000E+00  5.57323E+00 -1.00000E+00  2.30484E-01
      -1    -1     0     0     0   501  0.000000000E+00  0.000000000E+00  4.188112824E+01  4.188112824E+01  0.000000000E+00  0.00000E+00  9.000E+00
      21    -1     0     0   501   511  0.000000000E+00  0.000000000E+00 -3.358368315E+00  3.358368315E+00  0.000000000E+00  0.00000E+00  9.000E+00
      23     2     1     2     0     0 -2.235124189E+00 -5.105400156E+00  2.977844892E+01  3.487012503E+01  1.726582487E+01  0.00000E+00  9.000E+00
      11     1     3     3     0     0 -5.726349677E+00 -9.778669484E+00  1.377787819E+01  1.783937737E+01  5.109989759E-04  0.00000E+00  9.000E+00
     -11     1     3     3     0     0  3.491225487E+00  4.673269328E+00  1.600057073E+01  1.703074765E+01  5.109989930E-04  0.00000E+00  9.000E+00
      -1     1     1     2     0   511  2.235124189E+00  5.105400156E+00  8.744311004E+00  1.036937153E+01  1.003065111E-07  0.00000E+00  9.000E+00
</event>
<event>
      6  10011  1.00000E+00  2.84903E+00 -1.00000E+00  3.03696E-01
      -3    -1     0     0     0   501  0.000000000E+00  0.000000000E+00  1.206124608E+01  1.206124608E+01  0.000000000E+00  0.00000E+00  9.000E+00
       3    -1     0     0   511     0  0.000000000E+00  0.000000000E+00 -1.703606914E+01  1.703606914E+01  0.000000000E+00  0.00000E+00  9.000E+00
      23     2     1     2     0     0 -2.768488995E+00  6.726259267E-01 -2.731658211E+00  2.547119533E+01  2.516352276E+01  0.00000E+00  9.000E+00
      11     1     3     3     0     0  2.112357526E+00  4.322873923E+00  1.014325895E+01  1.122653088E+01  5.109989402E-04  0.00000E+00  9.000E+00
     -11     1     3     3     0     0 -4.880846521E+00 -3.650247997E+00 -1.287491716E+01  1.424466445E+01  5.109990325E-04  0.00000E+00  9.000E+00
      21     1     1     2   511   501  2.768488995E+00 -6.726259267E-01 -2.243164848E+00  3.626119894E+00  4.212626397E-08  0.00000E+00  9.000E+00
</event>
<event>
      6  10011  1.00000E+00  2.40451E+01 -1.00000E+00  1.59990E-01
      21    -1     0     0   501   511  0.000000000E+00  0.000000000E+00  2.975058336E+01  2.975058336E+01  0.000000000E+00  0.00000E+00  9.000E+00
      -3    -1     0     0     0   501  0.000000000E+00  0.000000000E+00 -1.446779750E+02  1.446779750E+02  0.000000000E+00  0.00000E+00  9.000E+00
      23     2     1     2     0     0 -1.287880896E+01  2.030524087E+01 -1.175148995E+02  1.502446438E+02  9.047394575E+01  0.00000E+00  9.000E+00
      11     1     3     3     0     0  2.106169193E+01  1.834934765E+01 -2.373655977E-02  2.793374285E+01  5.109975550E-04  0.00000E+00  9.000E+00
     -11     1     3     3     0     0 -3.394050090E+01  1.955893224E+00 -1.174911630E+02  1.223109010E+02  5.109998526E-04  0.00000E+00  9.000E+00
      -3     1     1     2     0   511  1.287880896E+01 -2.030524087E+01  2.587507846E+00  2.418391457E+01  3.056121938E-07  0.00000E+00  9.000E+00
</event>
<event>
      6  10011  1.00000E+00  2.53341E+00 -1.00000E+00  3.20919E-01
       2    -1     0     0   511     0  0.000000000E+00  0.000000000E+00  7.062134358E+02  7.062134358E+02  0.000000000E+00  0.00000E+00  9.000E+00
      -2    -1     0     0     0   501  0.000000000E+00  0.000000000E+00 -1.553186857E-01  1.553186857E-01  0.000000000E+00  0.00000E+00  9.000E+00
      23     2     1     2     0     0 -2.470564088E+00 -5.607710962E-01  4.622629277E+02  4.625604024E+02  1.639187049E+01  0.00000E+00  9.000E+00
      11     1     3     3     0     0 -3.203953143E+00 -4.866670440E+00  4.253557649E+02  4.253956706E+02  5.110459837E-04  0.00000E+00  9.000E+00
     -11     1     3     3     0     0  7.333890546E-01  4.305899344E+00  3.690716273E+01  3.716473180E+01  5.109982115E-04  0.00000E+00  9.000E+00
      21     1     1     2   511   501  2.470564088E+00  5.607710962E-01  2.437951895E+02  2.438083522E+02  3.104595338E-06  0.00000E+00  9.000E+00
</event>
<event>
      6  10011  1.00000E+00  1.24434E+00 -1.00000E+00  5.19314E-01
       2    -1     0     0   511     0  0.000000000E+00  0.000000000E+00  1.641653329E+01  1.641653329E+01  0.000000000E+00  0.00000E+00  9.000E+00
      -2    -1     0     0     0   501  0.000000000E+00  0.000000000E+00 -1.039068419E+01  1.039068419E+01  0.000000000E+00  0.00000E+00  9.000E+00
      23     2     1     2     0     0 -8.574313737E-01  9.017695935E-01 -7.514386005E-02  2.058062193E+01  2.054283271E+01  0.00000E+00  9.000E+00
      11     1     3     3     0     0 -1.247320693E+00  2.269245181E+00 -1.011468049E+01  1.044088331E+01  5.109989775E-04  0.00000E+00  9.000E+00
     -11     1     3     3     0     0  3.898893190E-01 -1.367475588E+00  1.003953663E+01  1.013973862E+01  5.109989228E-04  0.00000E+00  9.000E+00
      21     1     1     2   511   501  8.574313737E-01 -9.017695935E-01  6.100992960E+00  6.226595543E+00  6.564337830E-08  0.00000E+00  9.000E+00
</event>
<event>
      6  10011  1.00000E+00  6.66074E+00 -1.00000E+00  2.18575E-01
       3    -1     0     0   501     0  0.000000000E+00  0.000000000E+00  1.367454263E+02  1.367454263E+02  0.000000000E+00  0.00000E+00  9.000E+00
      21    -1     0     0   511   501  0.000000000E+00  0.000000000E+00 -2.171425459E+01  2.171425459E+01  0.000000000E+00  0.00000E+00  9.000E+00
      23     2     1     2     0     0  4.487603621E+00  4.922085950E+00  1.203543799E+02  1.499331305E+02  8.916502309E+01  0.00000E+00  9.000E+00
      11     1     3     3     0     0  1.570346782E+01 -3.095885313E+01  1.453401649E+01  3.763359037E+01  5.109984466E-04  0.00000E+00  9.000E+00
     -11     1     3     3     0     0 -1.121586420E+01  3.588093908E+01  1.058203634E+02  1.122995401E+02  5.109999465E-04  0.00000E+00  9.000E+00
       3     1     1     2   511     0 -4.487603621E+00 -4.922085950E+00 -5.323208187E+00  8.526550402E+00  2.630883249E-07  0.00000E+00  9.000E+00
</event>
<event>
      6  10011  1.00000E+00  1.13045E+01 -1.00000E+00  1.89741E-01
      21    -1     0     0   501   511  0.000000000E+00  0.000000000E+00  4.911176947E+02  4.911176947E+02  0.000000000E+00  0.00000E+00  9.000E+00
      -2    -1     0     0     0   501  0.000000000E+00  0.000000000E+00 -7.208462312E+00  7.208462312E+00  0.000000000E+00  0.00000E+00  9.000E+00
      23     2     1     2     0     0 -2.665668169E+00 -1.098571613E+01  3.013621762E+02  3.154294116E+02  9.245950863E+01  0.00000E+00  9.000E+00
      11     1     3     3     0     0 -5.050025132E+00  1.288024206E+01  7.428433224E-01  1.385479000E+01  5.109984118E-04  0.00000E+00  9.000E+00
     -11     1     3     3     0     0  2.384356963E+00 -2.386595819E+01  3.006193329E+02  3.015746216E+02  5.110097424E-04  0.00000E+00  9.000E+00
      -2     1     1     2     0   511  2.665668169E+00  1.098571613E+01  1.825470561E+02  1.828967453E+02  1.411762152E-06  0.00000E+00  9.000E+00
</event>
<event>
      6  10011  1.00000E+00  1.00420E+01 -1.00000E+00  1.95489E-01
       4    -1     0     0   501     0  0.000000000E+00  0.000000000E+00  1.319371072E+02  1.319371072E+02  0.000000000E+00  0.00000E+00  9.000E+00
      21    -1     0     0   511   501  0.000000000E+00  0.000000000E+00 -2.079750252E+00  2.079750252E+00  0.000000000E+00  0.00000E+00  9.000E+00
      23     2     1     2     0     0 -6.407340316E+00 -7.732301464E+00  1.046249954E+02  1.068596380E+02  1.928082176E+01  0.00000E+00  9.000E+00
      11     1     3     3     0     0  6.041321451E+00  1.202263161E+00  2.310339535E+01  2.391045542E+01  5.109990753E-04  0.00000E+00  9.000E+00
     -11     1     3     3     0     0 -1.244866177E+01 -8.934564625E+00  8.152160002E+01  8.294918260E+01  5.109957254E-04  0.00000E+00  9.000E+00
       4     1     1     2   511     0  6.407340316E+00  7.732301464E+00  2.523236155E+01  2.715721940E+01  1.909733656E-07  0.00000E+00  9.000E+00
</event>
<event>
      6  10011  1.00000E+00  1.55785E+00 -1.00000E+00  4.22383E-01
      -2    -1     0     0     0   511  0.000000000E+00  0.000000000E+00  4.312454936E+01  4.312454936E+01  0.000000000E+00  0.00000E+00  9.000E+00
       2    -1     0     0   501     0  0.000000000E+00  0.000000000E+00 -4.592438836E+00  4.592438836E+00  0.000000000E+00  0.00000E+00  9.000E+00
      23     2     1     2     0     0 -4.784138304E-01 -1.482566586E+00  3.231067083E+01  4.130347158E+01  2.568210334E+01  0.00000E+00  9.000E+00
      11     1     3     3     0     0 -5.363621120E+00 -1.254041969E+01  1.732045990E+01  2.204606289E+01  5.109989102E-04  0.00000E+00  9.000E+00
     -11     1     3     3     0     0  4.885207290E+00  1.105785311E+01  1.499021093E+01  1.925740869E+01  5.109989774E-04  0.00000E+00  9.000E+00
      21     1     1     2   501   511  4.784138304E-01  1.482566586E+00  6.221439688E+00  6.413516607E+00  1.158738957E-07  0.00000E+00  9.000E+00
</event>
<event>
      6  10011  1.00000E+00  2.74244E+00 -1.00000E+00  3.09070E-01
       2    -1     0     0   511     0  0.000000000E+00  0.000000000E+00  1.782368106E+03  1.782368106E+03  0.000000000E+00  0.00000E+00  9.000E+00
      -2    -1     0     0     0   501  0.000000000E+00  0.000000000E+00 -8.073158377E-02  8.073158377E-02  0.000000000E+00  0.00000E+00  9.000E+00
      23     2     1     2     0     0  9.472595431E-01  2.573651552E+00  1.204471536E+03  1.204626491E+03  1.912540244E+01  0.00000E+00  9.000E+00
      11     1     3     3     0     0 -8.398243319E+00 -2.341586772E+00  5.049221361E+02  5.049974030E+02  5.109538912E-04  0.00000E+00  9.000E+00
     -11     1     3     3     0     0  9.345502862E+00  4.915238324E+00  6.995493998E+02  6.996290880E+02  5.109834967E-04  0.00000E+00  9.000E+00
      21     1     1     2   511   501 -9.472595431E-01 -2.573651552E+00  5.778158382E+02  5.778223463E+02  7.955824715E-06  0.00000E+00  9.000E+00
</event>
<event>
      6  10011  1.00000E+00  3.42547E+01 -1.00000E+00  1.49111E-01
      -2    -1     0     0     0   511  0.000000000E+00  0.000000000E+00  4.166683501E+01  4.166683501E+01  0.000000000E+00  0.00000E+00  9.000E+00
       2    -1     0     0   501     0  0.000000000E+00  0.000000000E+00 -1.102345873E+02  1.102345873E+02  0.000000000E+00  0.00000E+00  9.000E+00
      23     2     1     2     0     0  3.424980869E+01  5.814428266E-01 -6.591588035E+01  1.175441830E+02  9.109524795E+01  0.00000E+00  9.000E+00
      11     1     3     3     0     0  4.128356031E+01 -1.255558170E+01  6.476580179E+00  4.363394406E+01  5.109980696E-04  0.00000E+00  9.000E+00
     -11     1     3     3     0     0 -7.033751618E+00  1.313702453E+01 -7.239246053E+01  7.391023892E+01  5.109975726E-04  0.00000E+00  9.000E+00
      21     1     1     2   501   511 -3.424980869E+01 -5.814428266E-01 -2.651871972E+00  3.435723935E+01  5.176369289E-07  0.00000E+00  9.000E+00
</event>
<event>
      6  10011  1.00000E+00  1.19001E+01 -1.00000E+00  1.87357E-01
      -3    -1     0     0     0   511  0.000000000E+00  0.000000000E+00  1.101373115E+01  1.101373115E+01  0.000000000E+00  0.00000E+00  9.000E+00
       3    -1     0     0   501     0  0.000000000E+00  0.000000000E+00 -3.072275877E+01  3.072275877E+01  0.000000000E+00  0.00000E+00  9.000E+00
      23     2     1     2     0     0  8.819916610E+00  7.988818937E+00 -1.981707123E+01  2.983590882E+01  1.886406601E+01  0.00000E+00  9.000E+00
      11     1     3     3     0     0  1.116660862E+01  1.031001903E+01 -2.134147001E+01  2.620015234E+01  5.109988754E-04  0.00000E+00  9.000E+00
     -11     1     3     3     0     0 -2.346692013E+00 -2.321200093E+00  1.524398780E+00  3.635756479E+00  5.109989115E-04  0.00000E+00  9.000E+00
      21     1     1     2   501   511 -8.819916610E+00 -7.988818937E+00  1.080436157E-01  1.190058110E+01  7.874751682E-08  0.00000E+00  9.000E+00
</event>
<event>
      6  10011  1.00000E+00  1.22673E+00 -1.00000E+00  5.26170E-01
      -2    -1     0     0     0   501  0.000000000E+00  0.000000000E+00  9.238790160E-02  9.238790160E-02  0.000000000E+00  0.00000E+00  9.000E+00
       2    -1     0     0   511     0  0.000000000E+00  0.000000000E+00 -1.350465354E+03  1.350465354E+03  0.000000000E+00  0.00000E+00  9.000E+00
      23     2     1     2     0     0 -5.657877522E-01  1.088466252E+00 -1.271516520E+03  1.271691755E+03  2.107493782E+01  0.00000E+00  9.000E+00
      11     1     3     3     0     0 -1.005276615E+01  4.472390425E+00 -6.269341966E+02  6.270307387E+02  5.108943553E-04  0.00000E+00  9.000E+00
     -11     1     3     3     0     0  9.486978400E+00 -3.383924173E+00 -6.445823237E+02  6.446610161E+02  5.108901551E-04  0.00000E+00  9.000E+00
      21     1     1     2   511   501  5.657877522E-01 -1.088466252E+00 -7.885644574E+01  7.886598702E+01  1.207637762E-06  0.00000E+00  9.000E+00
</event>
<event>
      6  10011  1.00000E+00  1.20372E+01 -1.00000E+00  1.86834E-01
       1    -1     0     0   501     0  0.000000000E+00  0.000000000E+00  8.214645686E+01  8.214645686E+01  0.000000000E+00  0.00000E+00  9.000E+00
      21    -1     0     0   511   501  0.000000000E+00  0.000000000E+00 -3.792918511E+01  3.792918511E+01  0.000000000E+00  0.00000E+00  9.000E+00
      23     2     1     2     0     0  7.487524497E+00 -9.425072238E+00  5.197922491E+01  1.057528306E+02  9.130677051E+01  0.00000E+00  9.000E+00
      11     1     3     3     0     0 -4.082415964E+00 -7.025930462E+00  7.734461215E+01  7.777029541E+01  5.110003554E-04  0.00000E+00  9.000E+00
     -11     1     3     3     0     0  1.156994046E+01 -2.399141777E+00 -2.536538724E+01  2.798253516E+01  5.109996326E-04  0.00000E+00  9.000E+00
       1     1     1     2   511     0 -7.487524497E+00  9.425072238E+00 -7.761953161E+00  1.432281141E+01  1.485685751E-07  0.00000E+00  9.000E+00
</event>
<event>
      6  10011  1.00000E+00  1.89088E+01 -1.00000E+00  1.68362E-01
       2    -1     0     0   501     0  0.000000000E+00  0.000000000E+00  1.328000825E+03  1.328000825E+03  0.000000000E+00  0.00000E+00  9.000E+00
      -2    -1     0     0     0   511  0.000000000E+00  0.000000000E+00 -3.120085410E+00  3.120085410E+00  0.000000000E+00  0.00000E+00  9.000E+00
      23     2     1     2     0     0  1.015208133E+01  1.595235043E+01  1.263925548E+03  1.267300243E+03  9.046862534E+01  0.00000E+00  9.000E+00
      11     1     3     3     0     0  2.454126332E+01  8.325783435E+00  1.013545028E+02  1.046151400E+02  5.110180921E-04  0.00000E+00  9.000E+00
     -11     1     3     3     0     0 -1.438918200E+01  7.626566993E+00  1.162571045E+03  1.162685103E+03  5.115519390E-04  0.00000E+00  9.000E+00
      21     1     1     2   501   511 -1.015208133E+01 -1.595235043E+01  6.095519187E+01  6.382066793E+01  1.021680815E-06  0.00000E+00  9.000E+00
</event>
<event>
      6  10011  1.00000E+00  1.37976E+00 -1.00000E+00  4.74805E-01
      -2    -1     0     0     0   511  0.000000000E+00  0.000000000E+00  6.443207221E-01  6.443207221E-01  0.000000000E+00  0.00000E+00  9.000E+00
       2    -1     0     0   501     0  0.000000000E+00  0.000000000E+00 -1.179225197E+03  1.179225197E+03  0.000000000E+00  0.00000E+00  9.000E+00
      23     2     1     2     0     0  9.209635989E-01 -1.027399966E+00 -1.176741088E+03  1.177569834E+03  4.414999453E+01  0.00000E+00  9.000E+00
      11     1     3     3     0     0 -5.238816325E-02  1.376086275E+01 -1.028028940E+03  1.028121036E+03  5.109554348E-04  0.00000E+00  9.000E+00
     -11     1     3     3     0     0  9.733517621E-01 -1.478826271E+01 -1.487121481E+02  1.494487977E+02  5.109818680E-04  0.00000E+00  9.000E+00
      21     1     1     2   501   511 -9.209635989E-01  1.027399966E+00 -1.839788595E+00  2.299684047E+00  9.487727313E-08  0.00000E+00  9.000E+00
</event>
<event>
      6  10011  1.00000E+00  7.92546E+00 -1.00000E+00  2.08137E-01
      -2    -1     0     0     0   501  0.000000000E+00  0.000000000E+00  1.569068704E+01  1.569068704E+01  0.000000000E+00  0.00000E+00  9.000E+00
       2    -1     0     0   511     0  0.000000000E+00  0.000000000E+00 -4.507773684E+02  4.507773684E+02  0.000000000E+00  0.00000E+00  9.000E+00
      23     2     1     2     0     0 -7.610372696E+00 -2.212508971E+00 -1.297553528E+02  1.610338839E+02  9.504023990E+01  0.00000E+00  9.000E+00
      11     1     3     3     0     0 -4.302859088E+01  7.831703408E+00 -2.586013625E+01  5.080887578E+01  5.109987828E-04  0.00000E+00  9.000E+00
     -11     1     3     3     0     0  3.541821818E+01 -1.004421238E+01 -1.038952166E+02  1.102250081E+02  5.109993077E-04  0.00000E+00  9.000E+00
      21     1     1     2   511   501  7.610372696E+00  2.212508971E+00 -3.053313285E+02  3.054341715E+02  1.792108581E-06  0.00000E+00  9.000E+00
</event>
<event>
      5  10011  1.00000E+00  8.94427E-01 -1.00000E+00  7.44941E-01
      -2    -1     0     0     0   501  0.000000000E+00  0.000000000E+00  8.819464224E+00  8.819464224E+00  0.000000000E+00  0.00000E+00  9.000E+00
       2    -1     0     0   501     0  0.000000000E+00  0.000000000E+00 -8.261680283E+00  8.261680283E+00  0.000000000E+00  0.00000E+00  9.000E+00
      23     2     1     2     0     0  0.000000000E+00  0.000000000E+00  5.577839412E-01  1.708114451E+01  1.707203487E+01  0.00000E+00  9.000E+00
      11     1     3     3     0     0 -4.625428938E+00 -5.852274047E+00 -3.873007715E+00  8.404992172E+00  5.109989198E-04  0.00000E+00  9.000E+00
     -11     1     3     3     0     0  4.625428938E+00  5.852274047E+00  4.430791656E+00  8.676152335E+00  5.109989280E-04  0.00000E+00  9.000E+00
</event>
<event>
      6  10011  1.00000E+00  4.68868E+00 -1.00000E+00  2.48112E-01
      -4    -1     0     0     0   501  0.000000000E+00  0.000000000E+00  1.502456981E+00  1.502456981E+00  0.000000000E+00  0.00000E+00  9.000E+00
       4    -1     0     0   511     0  0.000000000E+00  0.000000000E+00 -4.896360426E+02  4.896360426E+02  0.000000000E+00  0.00000E+00  9.000E+00
      23     2     1     2     0     0 -3.735290141E+00  2.833954433E+00 -9.592847713E+01  9.890536634E+01  2.362234272E+01  0.00000E+00  9.000E+00
      11     1     3     3     0     0 -1.155161537E+01  3.544670806E+00 -2.761975811E+01  3.014723117E+01  5.109987229E-04  0.00000E+00  9.000E+00
     -11     1     3     3     0     0  7.816325224E+00 -7.107163734E-01 -6.830871902E+01  6.875813518E+01  5.110014526E-04  0.00000E+00  9.000E+00
      21     1     1     2   511   501  3.735290141E+00 -2.833954433E+00 -3.922051084E+02  3.922331332E+02  2.657591916E-06  0.00000E+00  9.000E+00
</event>
<event>
      6  10011  1.00000E+00  3.16851E+01 -1.00000E+00  1.51375E-01
      21    -1     0     0   501   511  0.000000000E+00  0.000000000E+00  4.252884513E+00  4.252884513E+00  0.000000000E+00  0.00000E+00  9.000E+00
      -3    -1     0     0     0   501  0.000000000E+00  0.000000000E+00 -3.864463390E+02  3.864463390E+02  0.000000000E+00  0.00000E+00  9.000E+00
      23     2     1     2     0     0 -2.275945782E+01 -2.204437892E+01 -9.812669952E+01  1.048708330E+02  1.910745634E+01  0.00000E+00  9.000E+00
      11     1     3     3     0     0 -9.459366525E+00 -2.059645070E+00 -5.176729427E+01  5.266473686E+01  5.109980904E-04  0.00000E+00  9.000E+00
     -11     1     3     3     0     0 -1.330009129E+01 -1.998473385E+01 -4.635940526E+01  5.220609611E+01  5.109982236E-04  0.00000E+00  9.000E+00
      -3     1     1     2     0   511  2.275945782E+01  2.204437892E+01 -2.840667550E+02  2.858283906E+02  5.517857938E-06  0.00000E+00  9.000E+00
</event>
<event>
      6  10011  1.00000E+00  1.16451E+00 -1.00000E+00  5.52967E-01
       2    -1     0     0   511     0  0.000000000E+00  0.000000000E+00  3.293981005E+02  3.293981005E+02  0.000000000E+00  0.00000E+00  9.000E+00
      -2    -1     0     0     0   501  0.000000000E+00  0.000000000E+00 -3.792704209E-01  3.792704209E-01  0.000000000E+00  0.00000E+00  9.000E+00
      23     2     1     2     0     0 -1.102231149E+00  3.757147003E-01  2.987953309E+02  2.995314459E+02  2.095426608E+01  0.00000E+00  9.000E+00
      11     1     3     3     0     0  9.373250935E+00  3.570459743E+00  1.397284870E+02  1.400880298E+02  5.110145864E-04  0.00000E+00  9.000E+00
     -11     1     3     3     0     0 -1.047548208E+01 -3.194745042E+00  1.590668439E+02  1.594434161E+02  5.110023016E-04  0.00000E+00  9.000E+00
      21     1     1     2   511   501  1.102231149E+00 -3.757147003E-01  3.022349918E+01  3.024592498E+01  4.281977727E-07  0.00000E+00  9.000E+00
</event>
<event>
      6  10011  1.00000E+00  6.20432E+00 -1.00000E+00  2.23160E-01
       3    -1     0     0   511     0  0.000000000E+00  0.000000000E+00  1.811327700E+00  1.811327700E+00  0.000000000E+00  0.00000E+00  9.000E+00
      -3    -1     0     0     0   501  0.000000000E+00  0.000000000E+00 -1.497892948E+02  1.497892948E+02  0.000000000E+00  0.00000E+00  9.000E+00
      23     2     1     2     0     0  5.714358610E+00 -2.416541049E+00 -1.272099621E+02  1.299256693E+02  2.568679657E+01  0.00000E+00  9.000E+00
      11     1     3     3     0     0  9.928862532E+00 -5.638434862E+00 -1.218518186E+02  1.223856199E+02  5.109993034E-04  0.00000E+00  9.000E+00
     -11     1     3     3     0     0 -4.214503922E+00  3.221893813E+00 -5.358143520E+00  7.540049422E+00  5.109988259E-04  0.00000E+00  9.000E+00
      21     1     1     2   511   501 -5.714358610E+00  2.416541049E+00 -2.076800500E+01  2.167495321E+01  2.064765462E-07  0.00000E+00  9.000E+00
</event>
<event>
      6  10011  1.00000E+00  9.69623E+01 -1.00000E+00  1.24411E-01
      21    -1     0     0   511   501  0.000000000E+00  0.000000000E+00  2.907387464E+01  2.907387464E+01  0.000000000E+00  0.00000E+00  9.000E+00
       1    -1     0     0   501     0  0.000000000E+00  0.000000000E+00 -6.618539081E+02  6.618539081E+02  0.000000000E+00  0.00000E+00  9.000E+00
      23     2     1     2     0     0  3.402748626E+01  9.079550057E+01 -1.597163936E+02  2.080293461E+02  9.146141104E+01  0.00000E+00  9.000E+00
      11     1     3     3     0     0  2.135492645E+01 -1.347727317E+01 -5.071070555E+01  5.665020241E+01  5.109975027E-04  0.00000E+00  9.000E+00
     -11     1     3     3     0     0  1.267255981E+01  1.042727737E+02 -1.090056880E+02  1.513791437E+02  5.110067833E-04  0.00000E+00  9.000E+00
       1     1     1     2   511     0 -3.402748626E+01 -9.079550057E+01 -4.730636399E+02  4.828984367E+02  6.294431106E-06  0.00000E+00  9.000E+00
</event>
<event>
      6  10011  1.00000E+00  1.68835E+01 -1.00000E+00  1.72632E-01
      -2    -1     0     0     0   501  0.000000000E+00  0.000000000E+00  3.190051431E+00  3.190051431E+00  0.000000000E+00  0.00000E+00  9.000E+00
       2    -1     0     0   511     0  0.000000000E+00  0.000000000E+00 -1.204797234E+03  1.204797234E+03  0.000000000E+00  0.00000E+00  9.000E+00
      23     2     1     2     0     0  1.626012081E+01 -4.545466576E+00 -7.370785479E+02  7.431519326E+02  9.330035577E+01  0.00000E+00  9.000E+00
      11     1     3     3     0     0  4.276496158E+01  1.445678566E+01 -6.192538335E+02  6.208970533E+02  5.109287621E-04  0.00000E+00  9.000E+00
     -11     1     3     3     0     0 -2.650484077E+01 -1.900225224E+01 -1.178247144E+02  1.222548793E+02  5.109714336E-04  0.00000E+00  9.000E+00
      21     1     1     2   511   501 -1.626012081E+01  4.545466576E+00 -4.645286343E+02  4.648353524E+02  6.357332051E-06  0.00000E+00  9.000E+00
</event>
<event>
      6  10011  1.00000E+00  1.78904E+00 -1.00000E+00  3.87035E-01
       2    -1     0     0   501     0  0.000000000E+00  0.000000000E+00  2.724962696E+02  2.724962696E+02  0.000000000E+00  0.00000E+00  9.000E+00
      -2    -1     0     0     0   511  0.000000000E+00  0.000000000E+00 -7.800767231E+00  7.800767231E+00  0.000000000E+00  0.00000E+00  9.000E+00
      23     2     1     2     0     0  1.756386402E+00  3.402456676E-01  2.624094893E+02  2.773941906E+02  8.991994365E+01  0.00000E+00  9.000E+00
      11     1     3     3     0     0 -3.723805167E+01  1.882809863E+01  1.750782027E+02  1.799820737E+02  5.109896307E-04  0.00000E+00  9.000E+00
     -11     1     3     3     0     0  3.899443807E+01 -1.848785297E+01  8.733128657E+01  9.741211691E+01  5.109947412E-04  0.00000E+00  9.000E+00
      21     1     1     2   501   511 -1.756386402E+00 -3.402456676E-01  2.286013110E+00  2.902846232E+00  5.686408848E-08  0.00000E+00  9.000E+00
</event>
<event>
      6  10011  1.00000E+00  1.55243E+00 -1.00000E+00  4.23363E-01
      21    -1     0     0   511   501  0.000000000E+00  0.000000000E+00  1.175170854E+01  1.175170854E+01  0.000000000E+00  0.00000E+00  9.000E+00
       2    -1     0     0   501     0  0.000000000E+00  0.000000000E+00 -2.696441986E+02  2.696441986E+02  0.000000000E+00  0.00000E+00  9.000E+00
      23     2     1     2     0     0  1.476616697E+00 -4.792225163E-01 -2.689467065E+02  2.702332124E+02  2.629159743E+01  0.00000E+00  9.000E+00
      11     1     3     3     0     0 -9.372774417E+00  7.523029252E+00 -1.609940798E+02  1.614420596E+02  5.109824068E-04  0.00000E+00  9.000E+00
     -11     1     3     3     0     0  1.084939111E+01 -8.002251769E+00 -1.079526267E+02  1.087911529E+02  5.109962790E-04  0.00000E+00  9.000E+00
       2     1     1     2   511     0 -1.476616697E+00  4.792225163E-01  1.105421648E+01  1.116269470E+01  3.660465015E-07  0.00000E+00  9.000E+00
</event>
<event>
      6  10011  1.00000E+00  2.44485E+01 -1.00000E+00  1.59442E-01
      21    -1     0     0   511   501  0.000000000E+00  0.000000000E+00  1.279323561E+01  1.279323561E+01  0.000000000E+00  0.00000E+00  9.000E+00
       2    -1     0     0   501     0  0.000000000E+00  0.000000000E+00 -3.218667721E+02  3.218667721E+02  0.000000000E+00  0.00000E+00  9.000E+00
      23     2     1     2     0     0 -1.911230460E+01  1.524619957E+01 -2.853515296E+02  3.005944768E+02  9.128974325E+01  0.00000E+00  9.000E+00
      11     1     3     3     0     0  2.825832834E+00 -9.042402246E+00  3.346314540E+00  1.004729769E+01  5.109985352E-04  0.00000E+00  9.000E+00
     -11     1     3     3     0     0 -2.193813743E+01  2.428860181E+01 -2.886978442E+02  2.905471791E+02  5.110253502E-04  0.00000E+00  9.000E+00
       2     1     1     2   511     0  1.911230460E+01 -1.524619957E+01 -2.372200688E+01  3.406553095E+01  7.706940497E-08  0.00000E+00  9.000E+00
</event>
<event>
      6  10011  1.00000E+00  4.83406E+00 -1.00000E+00  2.45390E-01
      21    -1     0     0   501   511  0.000000000E+00  0.000000000E+00  2.068387967E+02  2.068387967E+02  0.000000000E+00  0.00000E+00  9.000E+00
      -4    -1     0     0     0   501  0.000000000E+00  0.000000000E+00 -7.125353772E-01  7.125353772E-01  0.000000000E+00  0.00000E+00  9.000E+00
      23     2     1     2     0     0  1.711498168E+00 -4.520938554E+00  1.107822478E+02  1.120848509E+02  1.633827607E+01  0.00000E+00  9.000E+00
      11     1     3     3     0     0 -1.407100754E+00 -1.015488905E+01  5.656518063E+01  5.748670598E+01  5.109976265E-04  0.00000E+00  9.000E+00
     -11     1     3     3     0     0  3.118598923E+00  5.633950501E+00  5.421706719E+01  5.459814495E+01  5.110002617E-04  0.00000E+00  9.000E+00
      -4     1     1     2     0   511 -1.711498168E+00  4.520938554E+00  9.534401353E+01  9.546648117E+01  6.515744659E-07  0.00000E+00  9.000E+00
</event>
<event>
      6  10011  1.00000E+00  4.50713E+01 -1.00000E+00  1.41667E-01
       1    -1     0     0   511     0  0.000000000E+00  0.000000000E+00  6.749257719E+01  6.749257719E+01  0.000000000E+00  0.00000E+00  9.000E+00
      -1    -1     0     0     0   501  0.000000000E+00  0.000000000E+00 -9.635810739E+01  9.635810739E+01  0.000000000E+00  0.00000E+00  9.000E+00
      23     2     1     2     0     0  2.864740519E+01 -3.479576778E+01 -4.853747379E+01  1.146734069E+02  9.360921216E+01  0.00000E+00  9.000E+00
      11     1     3     3     0     0 -7.733654767E+00  2.582060452E+01 -3.242399205E+01  4.216430118E+01  5.109980988E-04  0.00000E+00  9.000E+00
     -11     1     3     3     0     0  3.638105995E+01 -6.061637229E+01 -1.611348174E+01  7.250910568E+01  5.109979038E-04  0.00000E+00  9.000E+00
      21     1     1     2   511   501 -2.864740519E+01  3.479576778E+01  1.967194358E+01  4.917727771E+01  5.264930519E-07  0.00000E+00  9.000E+00
</event>
<event>
      6  10011  1.00000E+00  2.78505E+00 -1.00000E+00  3.06873E-01
      21    -1     0     0   501   511  0.000000000E+00  0.000000000E+00  6.176228814E+00  6.176228814E+00  0.000000000E+00  0.00000E+00  9.000E+00
      -2    -1     0     0     0   501  0.000000000E+00  0.000000000E+00 -2.581948457E+01  2.581948457E+01  0.000000000E+00  0.00000E+00  9.000E+00
      23     2     1     2     0     0 -1.094149292E+00 -2.561121755E+00 -2.148775086E+01  2.865525391E+01  1.875216340E+01  0.00000E+00  9.000E+00
      11     1     3     3     0     0 -2.080595722E+00  2.487298499E+00  2.517364774E+00  4.105198905E+00  5.109989370E-04  0.00000E+00  9.000E+00
     -11     1     3     3     0     0  9.864464295E-01 -5.048420255E+00 -2.400511564E+01  2.455005500E+01  5.109989653E-04  0.00000E+00  9.000E+00
      -2     1     1     2     0   511  1.094149292E+00  2.561121755E+00  1.844495106E+00  3.340459477E+00  1.154802439E-08  0.00000E+00  9.000E+00
</event>
<event>
      6  10011  1.00000E+00  1.10169E+00 -1.00000E+00  5.84944E-01
      -2    -1     0     0     0   501  0.000000000E+00  0.000000000E+00  2.928228716E+00  2.928228716E+00  0.000000000E+00  0.00000E+00  9.000E+00
       2    -1     0     0   511     0  0.000000000E+00  0.000000000E+00 -1.120183392E+02  1.120183392E+02  0.000000000E+00  0.00000E+00  9.000E+00
      23     2     1     2     0     0  2.142493177E-01 -1.080657774E+00 -9.382324684E+01  9.964000561E+01  3.352782944E+01  0.00000E+00  9.000E+00
      11     1     3     3     0     0  1.344023544E+01 -4.390444644E+00 -1.955773327E+01  2.413339726E+01  5.109992808E-04  0.00000E+00  9.000E+00
     -11     1     3     3     0     0 -1.322598612E+01  3.309786870E+00 -7.426551357E+01  7.550660835E+01  5.110002029E-04  0.00000E+00  9.000E+00
      21     1     1     2   511   501 -2.142493177E-01  1.080657774E+00 -1.526686363E+01  1.530656229E+01  1.887439570E-07  0.00000E+00  9.000E+00
</event>
<event>
      6  10011  1.00000E+00  1.74597E+01 -1.00000E+00  1.71344E-01
       2    -1     0     0   501     0  0.000000000E+00  0.000000000E+00  2.778932827E+02  2.778932827E+02  0.000000000E+00  0.00000E+00  9.000E+00
      -2    -1     0     0     0   511  0.000000000E+00  0.000000000E+00 -1.567318609E+01  1.567318609E+01  0.000000000E+00  0.00000E+00  9.000E+00
      23     2     1     2     0     0 -1.393355430E+01 -1.052134859E+01  2.590127490E+02  2.758145734E+02  9.317312955E+01  0.00000E+00  9.000E+00
      11     1     3     3     0     0  3.903914110E+01 -1.257539499E+01  9.587165637E+01  1.042764096E+02  5.109999778E-04  0.00000E+00  9.000E+00
     -11     1     3     3     0     0 -5.297269539E+01  2.054046397E+00  1.631410926E+02  1.715381639E+02  5.109895768E-04  0.00000E+00  9.000E+00
      21     1     1     2   501   511  1.393355430E+01  1.052134859E+01  3.207347674E+00  1.775189541E+01  2.498063402E-07  0.00000E+00  9.000E+00
</event>
<event>
      6  10011  1.00000E+00  1.02288E+01 -1.00000E+00  1.94570E-01
       2    -1     0     0   511     0  0.000000000E+00  0.000000000E+00  5.787195514E+02  5.787195514E+02  0.000000000E+00  0.00000E+00  9.000E+00
      -2    -1     0     0     0   501  0.000000000E+00  0.000000000E+00 -5.563381447E+00  5.563381447E+00  0.000000000E+00  0.00000E+00  9.000E+00
      23     2     1     2     0     0 -3.239725874E+00 -9.702239468E+00  3.565090123E+02  3.673944357E+02  8.817803729E+01  0.00000E+00  9.000E+00
      11     1     3     3     0     0  1.364717497E+00 -2.262376935E+01  1.891192768E+01  2.951878051E+01  5.110005091E-04  0.00000E+00  9.000E+00
     -11     1     3     3     0     0 -4.604443372E+00  1.292152988E+01  3.375970846E+02  3.378756552E+02  5.109450816E-04  0.00000E+00  9.000E+00
      21     1     1     2   511   501  3.239725874E+00  9.702239468E+00  2.166471576E+02  2.168884971E+02  1.186117455E-06  0.00000E+00  9.000E+00
</event>
<event>
      6  10011  1.00000E+00  6.04769E+00 -1.00000E+00  2.24861E-01
      21    -1     0     0   511   501  0.000000000E+00  0.000000000E+00  3.220018869E+00  3.220018869E+00  0.000000000E+00  0.00000E+00  9.000E+00
       2    -1     0     0   501     0  0.000000000E+00  0.000000000E+00 -6.541079597E+02  6.541079597E+02  0.000000000E+00  0.00000E+00  9.000E+00
      23     2     1     2     0     0 -5.929469550E+00  1.189931275E+00 -6.488767468E+02  6.509546398E+02  5.161720653E+01  0.00000E+00  9.000E+00
      11     1     3     3     0     0  4.741333019E+00 -1.099001118E+01 -3.750725006E+01  3.937073014E+01  5.110009374E-04  0.00000E+00  9.000E+00
     -11     1     3     3     0     0 -1.067080257E+01  1.217994245E+01 -6.113694968E+02  6.115839097E+02  5.110313846E-04  0.00000E+00  9.000E+00
       2     1     1     2   511     0  5.929469550E+00 -1.189931275E+00 -2.011194042E+00  6.373338769E+00  2.895641993E-07  0.00000E+00  9.000E+00
</event>
<event>
      6  10011  1.00000E+00  7.81663E+00 -1.00000E+00  2.08929E-01
      21    -1     0     0   501   511  0.000000000E+00  0.000000000E+00  1.924251089E+01  1.924251089E+01  0.000000000E+00  0.00000E+00  9.000E+00
      -1    -1     0     0     0   501  0.000000000E+00  0.000000000E+00 -1.122275337E+01  1.122275337E+01  0.000000000E+00  0.00000E+00  9.000E+00
      23     2     1     2     0     0 -6.590780930E+00  4.202537259E+00 -2.781584101E-01  1.906547824E+01  1.738721874E+01  0.00000E+00  9.000E+00
      11     1     3     3     0     0 -2.918969626E+00  6.637435287E+00 -7.610245702E+00  1.051150659E+01  5.109989039E-04  0.00000E+00  9.000E+00
     -11     1     3     3     0     0 -3.671811304E+00 -2.434898028E+00  7.332087291E+00  8.553971649E+00  5.109988756E-04  0.00000E+00  9.000E+00
      -1     1     1     2     0   511  6.590780930E+00 -4.202537259E+00  8.297915926E+00  1.139978602E+01  1.648835538E-07  0.00000E+00  9.000E+00
</event>
<event>
      6  10011  1.00000E+00  4.69326E+01 -1.00000E+00  1.40633E-01
      21    -1     0     0   511   501  0.000000000E+00  0.000000000E+00  5.957742607E+00  5.957742607E+00  0.000000000E+00  0.00000E+00  9.000E+00
       1    -1     0     0   501     0  0.000000000E+00  0.000000000E+00 -9.840937432E+02  9.840937432E+02  0.000000000E+00  0.00000E+00  9.000E+00
      23     2     1     2     0     0 -2.544851238E+01 -3.943401271E+01 -8.014210529E+02  8.072104596E+02  8.432291415E+01  0.00000E+00  9.000E+00
      11     1     3     3     0     0  1.549676605E+01  3.078660482E+00 -3.365705504E+01  3.718097985E+01  5.109892110E-04  0.00000E+00  9.000E+00
     -11     1     3     3     0     0 -4.094527843E+01 -4.251267320E+01 -7.677639979E+02  7.700294797E+02  5.111148302E-04  0.00000E+00  9.000E+00
       1     1     1     2   511     0  2.544851238E+01  3.943401271E+01 -1.767149477E+02  1.828410262E+02  3.354846783E-06  0.00000E+00  9.000E+00
</event>
<event>
      6  10011  1.00000E+00  2.83905E+00 -1.00000E+00  3.04183E-01
       2    -1     0     0   501     0  0.000000000E+00  0.000000000E+00  1.482239305E+03  1.482239305E+03  0.000000000E+00  0.00000E+00  9.000E+00
      -2    -1     0     0     0   511  0.000000000E+00  0.000000000E+00 -8.743859504E-01  8.743859504E-01  0.000000000E+00  0.00000E+00  9.000E+00
      23     2     1     2     0     0 -2.037462527E+00  1.977102487E+00  1.479643708E+03  1.479793637E+03  2.087212565E+01  0.00000E+00  9.000E+00
      11     1     3     3     0     0 -8.564450961E+00  4.832007283E+00  3.811524572E+02  3.812792857E+02  5.109683396E-04  0.00000E+00  9.000E+00
     -11     1     3     3     0     0  6.526988434E+00 -2.854904796E+00  1.098491251E+03  1.098514352E+03  5.106596486E-04  0.00000E+00  9.000E+00
      21     1     1     2   501   511  2.037462527E+00 -1.977102487E+00  1.721210358E+00  3.320053146E+00  4.162402441E-07  0.00000E+00  9.000E+00
</event>
<event>
      6  10011  1.00000E+00  6.54588E+00 -1.00000E+00  2.19680E-01
       1    -1     0     0   501     0  0.000000000E+00  0.000000000E+00  1.487280416E+01  1.487280416E+01  0.000000000E+00  0.00000E+00  9.000E+00
      -1    -1     0     0     0   511  0.000000000E+00  0.000000000E+00 -3.817075451E+01  3.817075451E+01  0.000000000E+00  0.00000E+00  9.000E+00
      23     2     1     2     0     0  6.493623946E+00  8.254296245E-01 -1.942927616E+01  4.543993282E+01  4.055172298E+01  0.00000E+00  9.000E+00
      11     1     3     3     0     0  1.020777345E+01 -1.134499891E+01 -2.672257553E+01  3.077342494E+01  5.109990092E-04  0.00000E+00  9.000E+00
     -11     1     3     3     0     0 -3.714149508E+00  1.217042854E+01  7.293299375E+00  1.466650788E+01  5.109988826E-04  0.00000E+00  9.000E+00
      21     1     1     2   501   511 -6.493623946E+00 -8.254296245E-01 -3.868674198E+00  7.603625851E+00  2.666901995E-08  0.00000E+00  9.000E+00
</event>
<event>
      6  10011  1.00000E+00  3.01309E+00 -1.00000E+00  2.96157E-01
      -3    -1     0     0     0   501  0.000000000E+00  0.000000000E+00  9.427553795E+01  9.427553795E+01  0.000000000E+00  0.00000E+00  9.000E+00
      21    -1     0     0   501   511  0.000000000E+00  0.000000000E+00 -3.745579630E+01  3.745579630E+01  0.000000000E+00  0.00000E+00  9.000E+00
      23     2     1     2     0     0  2.907637424E+00 -7.901692641E-01  9.018132136E+01  9.823396535E+01  3.883506798E+01  0.00000E+00  9.000E+00
      11     1     3     3     0     0  5.319466882E+00  1.682633055E+01  2.453562187E+01  3.022282032E+01  5.109986119E-04  0.00000E+00  9.000E+00
     -11     1     3     3     0     0 -2.411829458E+00 -1.761649981E+01  6.564569949E+01  6.801114503E+01  5.109973280E-04  0.00000E+00  9.000E+00
      -3     1     1     2     0   511 -2.907637424E+00  7.901692641E-01 -3.336157970E+01  3.349736890E+01  4.002563959E-07  0.00000E+00  9.000E+00
</event>
<event>
      6  10011  1.00000E+00  2.21352E+00 -1.00000E+00  3.43501E-01
      -2    -1     0     0     0   511  0.000000000E+00  0.000000000E+00  1.583246127E+00  1.583246127E+00  0.000000000E+00  0.00000E+00  9.000E+00
       2    -1     0     0   501     0  0.000000000E+00  0.000000000E+00 -3.955509760E+02  3.955509760E+02  0.000000000E+00  0.00000E+00  9.000E+00
      23     2     1     2     0     0  1.878558442E-02  2.213442062E+00 -3.856664615E+02  3.885429047E+02  4.713883305E+01  0.00000E+00  9.000E+00
      11     1     3     3     0     0 -1.083007282E+01 -1.774056555E+01 -2.608508219E+02  2.616776059E+02  5.109867853E-04  0.00000E+00  9.000E+00
     -11     1     3     3     0     0  1.084885841E+01  1.995400761E+01 -1.248156396E+02  1.268652988E+02  5.110085544E-04  0.00000E+00  9.000E+00
      21     1     1     2   501   511 -1.878558442E-02 -2.213442062E+00 -8.301268334E+00  8.591317397E+00  1.537105518E-07  0.00000E+00  9.000E+00
</event>
<event>
      6  10011  1.00000E+00  2.15443E+00 -1.00000E+00  3.48445E-01
      -3    -1     0     0     0   501  0.000000000E+00  0.000000000E+00  2.585836576E+01  2.585836576E+01  0.000000000E+00  0.00000E+00  9.000E+00
      21    -1     0     0   501   511  0.000000000E+00  0.000000000E+00 -2.807250060E+01  2.807250060E+01  0.000000000E+00  0.00000E+00  9.000E+00
      23     2     1     2     0     0 -1.346701859E+00 -1.681651809E+00  1.255214339E+01  3.900824824E+01  3.687065999E+01  0.00000E+00  9.000E+00
      11     1     3     3     0     0 -1.672187748E+01  8.220105410E+00  5.822185025E+00  1.952150502E+01  5.109990018E-04  0.00000E+00  9.000E+00
     -11     1     3     3     0     0  1.537517562E+01 -9.901757219E+00  6.729958363E+00  1.948674322E+01  5.109989695E-04  0.00000E+00  9.000E+00
      -3     1     1     2     0   511  1.346701859E+00  1.681651809E+00 -1.476627823E+01  1.492261812E+01  1.099434090E-07  0.00000E+00  9.000E+00
</event>
<event>
      6  10011  1.00000E+00  5.55283E+00 -1.00000E+00  2.30744E-01
      21    -1     0     0   511   501  0.000000000E+00  0.000000000E+00  1.445355051E+01  1.445355051E+01  0.000000000E+00  0.00000E+00  9.000E+00
       4    -1     0     0   501     0  0.000000000E+00  0.000000000E+00 -6.575847010E+01  6.575847010E+01  0.000000000E+00  0.00000E+00  9.000E+00
      23     2     1     2     0     0  3.637138993E+00 -4.195843839E+00 -6.044607464E+01  6.951647944E+01  3.388184010E+01  0.00000E+00  9.000E+00
      11     1     3     3     0     0  2.333623921E+00  6.439451660E+00 -5.815811907E+01  5.856004741E+01  5.109975170E-04  0.00000E+00  9.000E+00
     -11     1     3     3     0     0  1.303515073E+00 -1.063529550E+01 -2.287955568E+00  1.095643203E+01  5.109988815E-04  0.00000E+00  9.000E+00
       4     1     1     2   511     0 -3.637138993E+00  4.195843839E+00  9.141155045E+00  1.069554118E+01  8.696777768E-08  0.00000E+00  9.000E+00
</event>
<event>
      6  10011  1.00000E+00  8.36002E+00 -1.00000E+00  2.05138E-01
       2    -1     0     0   501     0  0.000000000E+00  0.000000000E+00  4.111830083E+02  4.111830083E+02  0.000000000E+00  0.00000E+00  9.000E+00
      -2    -1     0     0     0   511  0.000000000E+00  0.000000000E+00 -6.318862741E+00  6.318862741E+00  0.000000000E+00  0.00000E+00  9.000E+00
      23     2     1     2     0     0  4.983401296E+00  6.712344078E+00  3.882413762E+02  3.988952509E+02  9.119301046E+01  0.00000E+00  9.000E+00
      11     1     3     3     0     0  8.867846138E+00  2.718104424E+00  3.920414243E+02  3.921511254E+02  5.109845535E-04  0.00000E+00  9.000E+00
     -11     1     3     3     0     0 -3.884444842E+00  3.994239654E+00 -3.800048146E+00  6.744125467E+00  5.109998111E-04  0.00000E+00  9.000E+00
      21     1     1     2   501   511 -4.983401296E+00 -6.712344078E+00  1.662276940E+01  1.860662017E+01  7.223605897E-08  0.00000E+00  9.000E+00
</event>
<event>
      6  10011  1.00000E+00  3.42494E+01 -1.00000E+00  1.49115E-01
       2    -1     0     0   501     0  0.000000000E+00  0.000000000E+00  8.491281924E+02  8.491281924E+02  0.000000000E+00  0.00000E+00  9.000E+00
      21    -1     0     0   511   501  0.000000000E+00  0.000000000E+00 -1.734084674E+00  1.734084674E+00  0.000000000E+00  0.00000E+00  9.000E+00
      23     2     1     2     0     0 -2.573825080E+01  2.259565689E+01  4.066794844E+02  4.088188398E+02  2.390856416E+01  0.00000E+00  9.000E+00
      11     1     3     3     0     0 -1.450484365E+01 -2.009025889E+00  1.311535798E+02  1.319685120E+02  5.109952014E-04  0.00000E+00  9.000E+00
     -11     1     3     3     0     0 -1.123340715E+01  2.460468278E+01  2.755259047E+02  2.768503278E+02  5.109726225E-04  0.00000E+00  9.000E+00
       2     1     1     2   511     0  2.573825080E+01 -2.259565689E+01  4.407146233E+02  4.420434373E+02  3.801636390E-06  0.00000E+00  9.000E+00
</event>
<event>
      6  10011  1.00000E+00  2.66159E+00 -1.00000E+00  3.13431E-01
       1    -1     0     0   511     0  0.000000000E+00  0.000000000E+00  2.057982310E+02  2.057982310E+02  0.000000000E+00  0.00000E+00  9.000E+00
      -1    -1     0     0     0   501  0.000000000E+00  0.000000000E+00 -8.235240571E-01  8.235240571E-01  0.000000000E+00  0.00000E+00  9.000E+00
      23     2     1     2     0     0 -2.323063987E+00 -1.299007254E+00  1.603322630E+02  1.619000395E+02  2.231824741E+01  0.00000E+00  9.000E+00
      11     1     3     3     0     0 -1.392575220E+00 -1.111507436E+01  1.128628433E+02  1.134173952E+02  5.109992565E-04  0.00000E+00  9.000E+00
     -11     1     3     3     0     0 -9.304887669E-01  9.816067105E+00  4.746941974E+01  4.848264425E+01  5.109968644E-04  0.00000E+00  9.000E+00
      21     1     1     2   511   501  2.323063987E+00  1.299007254E+00  4.464244394E+01  4.472171561E+01  5.687872971E-07  0.00000E+00  9.000E+00
</event>
<event>
      6  10011  1.00000E+00  2.39455E+00 -1.00000E+00  3.29953E-01
      -2    -1     0     0     0   511  0.000000000E+00  0.000000000E+00  3.724676904E-01  3.724676904E-01  0.000000000E+00  0.00000E+00  9.000E+00
       2    -1     0     0   501     0  0.000000000E+00  0.000000000E+00 -5.553992959E+02  5.553992959E+02  0.000000000E+00  0.00000E+00  9.000E+00
      23     2     1     2     0     0 -1.446526259E+00 -1.908250795E+00 -5.255591344E+02  5.262069393E+02  2.599240876E+01  0.00000E+00  9.000E+00
      11     1     3     3     0     0 -9.116286261E+00  7.111777650E+00 -3.768043226E+02  3.769816728E+02  5.109946765E-04  0.00000E+00  9.000E+00
     -11     1     3     3     0     0  7.669760002E+00 -9.020028444E+00 -1.487548118E+02  1.492252665E+02  5.110070432E-04  0.00000E+00  9.000E+00
      21     1     1     2   501   511  1.446526259E+00  1.908250795E+00 -2.946769379E+01  2.956482431E+01  9.968197465E-08  0.00000E+00  9.000E+00
</event>
<event>
      6  10011  1.00000E+00  4.34556E+00 -1.00000E+00  2.55168E-01
       2    -1     0     0   501     0  0.000000000E+00  0.000000000E+00  3.332920744E+01  3.332920744E+01  0.000000000E+00  0.00000E+00  9.000E+00
      -2    -1     0     0     0   511  0.000000000E+00  0.000000000E+00 -8.019582490E+01  8.019582490E+01  0.000000000E+00  0.00000E+00  9.000E+00
      23     2     1     2     0     0  9.449748108E-01  4.241574881E+00 -2.360688433E+01  8.986284477E+01  8.659770175E+01  0.00000E+00  9.000E+00
      11     1     3     3     0     0  2.003922235E+01 -3.653038589E+01 -1.040011130E+01  4.294417121E+01  5.109981128E-04  0.00000E+00  9.000E+00
     -11     1     3     3     0     0 -1.909424754E+01  4.077196077E+01 -1.320677303E+01  4.691867356E+01  5.109990469E-04  0.00000E+00  9.000E+00
      21     1     1     2   501   511 -9.449748108E-01 -4.241574881E+00 -2.325973314E+01  2.366218757E+01  2.245086308E-07  0.00000E+00  9.000E+00
</event>
<event>
      6  10011  1.00000E+00  1.87447E+00 -1.00000E+00  3.76506E-01
       2    -1     0     0   511     0  0.000000000E+00  0.000000000E+00  9.692163657E+01  9.692163657E+01  0.000000000E+00  0.00000E+00  9.000E+00
      -2    -1     0     0     0   501  0.000000000E+00  0.000000000E+00 -3.499965797E+01  3.499965797E+01  0.000000000E+00  0.00000E+00  9.000E+00
      23     2     1     2     0     0  9.765520757E-01  1.599998029E+00  5.856922384E+01  1.280801213E+02  1.138887608E+02  0.00000E+00  9.000E+00
      11     1     3     3     0     0  5.375064954E+01  1.365876479E+01  1.216184424E+01  5.677679665E+01  5.109997381E-04  0.00000E+00  9.000E+00
     -11     1     3     3     0     0 -5.277409747E+01 -1.205876676E+01  4.640737960E+01  7.130332461E+01  5.109996328E-04  0.00000E+00  9.000E+00
      21     1     1     2   511   501 -9.765520757E-01 -1.599998029E+00  3.352754763E+00  3.841173278E+00  2.121699182E-08  0.00000E+00  9.000E+00
</event>
<event>
      6  10011  1.00000E+00  5.18167E+00 -1.00000E+00  2.35753E-01
      -2    -1     0     0     0   511  0.000000000E+00  0.000000000E+00  1.555439570E+00  1.555439570E+00  0.000000000E+00  0.00000E+00  9.000E+00
       2    -1     0     0   501     0  0.000000000E+00  0.000000000E+00 -4.799189276E+02  4.799189276E+02  0.000000000E+00  0.00000E+00  9.000E+00
      23     2     1     2     0     0  4.938182999E+00 -1.569722172E+00 -4.738186146E+02  4.745819399E+02  2.640243286E+01  0.00000E+00  9.000E+00
      11     1     3     3     0     0  1.276490788E+01  5.044202563E+00 -1.573549887E+02  1.579524590E+02  5.109787149E-04  0.00000E+00  9.000E+00
     -11     1     3     3     0     0 -7.826724885E+00 -6.613924735E+00 -3.164636259E+02  3.166294808E+02  5.110038120E-04  0.00000E+00  9.000E+00
      21     1     1     2   501   511 -4.938182999E+00  1.569722172E+00 -4.544873408E+00  6.892427245E+00  5.738035515E-08  0.00000E+00  9.000E+00
</event>
<event>
      6  10011  1.00000E+00  3.45284E+00 -1.00000E+00  2.79369E-01
       2    -1     0     0   501     0  0.000000000E+00  0.000000000E+00  2.355846314E+03  2.355846314E+03  0.000000000E+00  0.00000E+00  9.000E+00
      -2    -1     0     0     0   511  0.000000000E+00  0.000000000E+00 -5.031201313E-02  5.031201313E-02  0.000000000E+00  0.00000E+00  9.000E+00
      23     2     1     2     0     0  9.096253348E-01 -3.330870947E+00  2.058782149E+03  2.058862704E+03  1.788221627E+01  0.00000E+00  9.000E+00
      11     1     3     3     0     0  3.752672095E+00  5.840837457E+00  1.318560279E+03  1.318578556E+03  5.108001072E-04  0.00000E+00  9.000E+00
     -11     1     3     3     0     0 -2.843046760E+00 -9.171708403E+00  7.402218698E+02  7.402841480E+02  5.106407806E-04  0.00000E+00  9.000E+00
      21     1     1     2   501   511 -9.096253348E-01  3.330870947E+00  2.970138529E+02  2.970339222E+02  4.539354507E-06  0.00000E+00  9.000E+00
</event>
<event>
      6  10011  1.00000E+00  2.17399E+00 -1.00000E+00  3.46776E-01
      -2    -1     0     0     0   501  0.000000000E+00  0.000000000E+00  3.045611422E-01  3.045611422E-01  0.000000000E+00  0.00000E+00  9.000E+00
       2    -1     0     0   511     0  0.000000000E+00  0.000000000E+00 -5.009479550E+02  5.009479550E+02  0.000000000E+00  0.00000E+00  9.000E+00
      23     2     1     2     0     0  2.108605445E+00  5.291767489E-01 -4.131500856E+02  4.137322028E+02  2.183154180E+01  0.00000E+00  9.000E+00
      11     1     3     3     0     0 -2.879472021E+00 -2.869948357E+00 -1.513968288E+01  1.567603140E+01  5.109955167E-04  0.00000E+00  9.000E+00
     -11     1     3     3     0     0  4.988077466E+00  3.399125106E+00 -3.980104027E+02  3.980561714E+02  5.110933931E-04  0.00000E+00  9.000E+00
      21     1     1     2   511   501 -2.108605445E+00 -5.291767489E-01 -8.749330827E+01  8.752031328E+01  8.079672880E-07  0.00000E+00  9.000E+00
</event>
<event>
      6  10011  1.00000E+00  1.64935E+01 -1.00000E+00  1.73541E-01
       1    -1     0     0   511     0  0.000000000E+00  0.000000000E+00  1.115997415E+03  1.115997415E+03  0.000000000E+00  0.00000E+00  9.000E+00
      -1    -1     0     0     0   501  0.000000000E+00  0.000000000E+00 -3.542735063E+00  3.542735063E+00  0.000000000E+00  0.00000E+00  9.000E+00
      23     2     1     2     0     0  9.456101500E+00  1.351355520E+01  5.195434144E+02  5.263995236E+02  8.306060985E+01  0.00000E+00  9.000E+00
      11     1     3     3     0     0 -1.687598008E+01  1.742564129E+01  4.510116759E+01  5.121100464E+01  5.109993960E-04  0.00000E+00  9.000E+00
     -11     1     3     3     0     0  2.633208158E+01 -3.912086088E+00  4.744422468E+02  4.751885189E+02  5.109644876E-04  0.00000E+00  9.000E+00
      21     1     1     2   511   501 -9.456101500E+00 -1.351355520E+01  5.929112658E+02  5.931406267E+02  6.741388090E-06  0.00000E+00  9.000E+00
</event>
<event>
      6  10011  1.00000E+00  1.52166E+00 -1.00000E+00  4.29095E-01
      21    -1     0     0   501   511  0.000000000E+00  0.000000000E+00  7.453411616E+00  7.453411616E+00  0.000000000E+00  0.00000E+00  9.000E+00
      -1    -1     0     0     0   501  0.000000000E+00  0.000000000E+00 -5.975827389E+01  5.975827389E+01  0.000000000E+00  0.00000E+00  9.000E+00
      23     2     1     2     0     0  1.500397463E+00  2.534859799E-01 -5.351811625E+01  6.526555270E+01  3.732409617E+01  0.00000E+00  9.000E+00
      11     1     3     3     0     0 -7.176394565E+00  1.168719959E+01 -4.794551147E+01  4.986846041E+01  5.109983140E-04  0.00000E+00  9.000E+00
     -11     1     3     3     0     0  8.676792028E+00 -1.143371361E+01 -5.572604777E+00  1.539709229E+01  5.109989607E-04  0.00000E+00  9.000E+00
      -1     1     1     2     0   511 -1.500397463E+00 -2.534859799E-01  1.213253973E+00  1.946132805E+00  1.916579495E-08  0.00000E+00  9.000E+00
</event>
<event>
      6  10011  1.00000E+00  6.97528E+00 -1.00000E+00  2.15700E-01
      21    -1     0     0   511   501  0.000000000E+00  0.000000000E+00  6.060566294E+00  6.060566294E+00  0.000000000E+00  0.00000E+00  9.000E+00
       4    -1     0     0   501     0  0.000000000E+00  0.000000000E+00 -6.142921287E+01  6.142921287E+01  0.000000000E+00  0.00000E+00  9.000E+00
      23     2     1     2     0     0  1.124380351E+00  6.884059170E+00 -5.428301879E+01  6.043052357E+01  2.562318382E+01  0.00000E+00  9.000E+00
      11     1     3     3     0     0 -1.976381417E+00  3.984892537E+00 -5.575909152E+01  5.593622923E+01  5.109991454E-04  0.00000E+00  9.000E+00
     -11     1     3     3     0     0  3.100761768E+00  2.899166633E+00  1.476072736E+00  4.494294349E+00  5.109989243E-04  0.00000E+00  9.000E+00
       4     1     1     2   511     0 -1.124380351E+00 -6.884059170E+00 -1.085627791E+00  7.059255593E+00  5.511254291E-08  0.00000E+00  9.000E+00
</event>
<event>
      6  10011  1.00000E+00  4.95416E+00 -1.00000E+00  2.43249E-01
       2    -1     0     0   511     0  0.000000000E+00  0.000000000E+00  1.254859438E+01  1.254859438E+01  0.000000000E+00  0.00000E+00  9.000E+00
      -2    -1     0     0     0   501  0.000000000E+00  0.000000000E+00 -1.663442955E+01  1.663442955E+01  0.000000000E+00  0.00000E+00  9.000E+00
      23     2     1     2     0     0 -4.930153547E+00  4.870899104E-01 -7.709882941E+00  2.304483259E+01  2.114422720E+01  0.00000E+00  9.000E+00
      11     1     3     3     0     0 -5.858383563E+00 -5.689865556E+00 -1.266638621E+01  1.507091795E+01  5.109988438E-04  0.00000E+00  9.000E+00
     -11     1     3     3     0     0  9.282300168E-01  6.176955466E+00  4.956503270E+00  7.973914642E+00  5.109988702E-04  0.00000E+00  9.000E+00
      21     1     1     2   511   501  4.930153547E+00 -4.870899104E-01  3.624047771E+00  6.138191331E+00  7.814789823E-08  0.00000E+00  9.000E+00
</event>
<event>
      6  10011  1.00000E+00  4.45975E+00 -1.00000E+00  2.52713E-01
      -4    -1     0     0     0   501  0.000000000E+00  0.000000000E+00  1.817184441E+02  1.817184441E+02  0.000000000E+00  0.00000E+00  9.000E+00
       4    -1     0     0   511     0  0.000000000E+00  0.000000000E+00 -1.281131789E+01  1.281131789E+01  0.000000000E+00  0.00000E+00  9.000E+00
      23     2     1     2     0     0 -3.785450374E+00  2.357903063E+00  1.631357909E+02  1.872360899E+02  9.178331953E+01  0.00000E+00  9.000E+00
      11     1     3     3     0     0 -3.699539504E+01  2.424633928E+01  1.230812655E+02  1.307881575E+02  5.109996189E-04  0.00000E+00  9.000E+00
     -11     1     3     3     0     0  3.320994467E+01 -2.188843622E+01  4.005452533E+01  5.644793233E+01  5.109990665E-04  0.00000E+00  9.000E+00
      21     1     1     2   511   501  3.785450374E+00 -2.357903063E+00  5.771335311E+00  7.293672097E+00  4.604163429E-08  0.00000E+00  9.000E+00
</event>
<event>
      6  10011  1.00000E+00  3.01317E+01 -1.00000E+00  1.52873E-01
      -1    -1     0     0     0   511  0.000000000E+00  0.000000000E+00  1.630785971E+00  1.630785971E+00  0.000000000E+00  0.00000E+00  9.000E+00
       1    -1     0     0   501     0  0.000000000E+00  0.000000000E+00 -1.244986706E+03  1.244986706E+03  0.000000000E+00  0.00000E+00  9.000E+00
      23     2     1     2     0     0  1.892372357E+01  2.344809275E+01 -1.046914833E+03  1.047878917E+03  3.334122842E+01  0.00000E+00  9.000E+00
      11     1     3     3     0     0 -4.817634518E-01  7.902781485E+00 -4.753733483E+01  4.819215968E+01  5.109987567E-04  0.00000E+00  9.000E+00
     -11     1     3     3     0     0  1.940548703E+01  1.554531127E+01 -9.993774978E+02  9.996867573E+02  5.110625566E-04  0.00000E+00  9.000E+00
      21     1     1     2   501   511 -1.892372357E+01 -2.344809275E+01 -1.964410871E+02  1.987385747E+02  4.490172617E-06  0.00000E+00  9.000E+00
</event>
<event>
      6  10011  1.00000E+00  5.21990E+00 -1.00000E+00  2.35210E-01
       2    -1     0     0   501     0  0.000000000E+00  0.000000000E+00  7.278927215E+02  7.278927215E+02  0.000000000E+00  0.00000E+00  9.000E+00
      -2    -1     0     0     0   511  0.000000000E+00  0.000000000E+00 -2.443337275E-01  2.443337275E-01  0.000000000E+00  0.00000E+00  9.000E+00
      23     2     1     2     0     0 -3.692916602E+00 -3.689141250E+00  6.494381477E+02  6.497528154E+02  1.953371641E+01  0.00000E+00  9.000E+00
      11     1     3     3     0     0 -1.842954583E+00 -1.597872940E+00  9.486226623E+00  9.794803486E+00  5.110001055E-04  0.00000E+00  9.000E+00
     -11     1     3     3     0     0 -1.849962019E+00 -2.091268310E+00  6.399519210E+02  6.399580119E+02  5.112246705E-04  0.00000E+00  9.000E+00
      21     1     1     2   501   511  3.692916602E+00  3.689141250E+00  7.821024006E+01  7.838423979E+01  1.072055444E-06  0.00000E+00  9.000E+00
</event>
<event>
      5  10011  1.00000E+00  8.94427E-01 -1.00000E+00  7.33628E-01
      -2    -1     0     0     0   501  0.000000000E+00  0.000000000E+00  3.037256939E-01  3.037256939E-01  0.000000000E+00  0.00000E+00  9.000E+00
       2    -1     0     0   501     0  0.000000000E+00  0.000000000E+00 -4.025671499E+02  4.025671499E+02  0.000000000E+00  0.00000E+00  9.000E+00
      23     2     1     2     0     0  0.000000000E+00  0.000000000E+00 -4.022634242E+02  4.028708756E+02  2.211515200E+01  0.00000E+00  9.000E+00
      11     1     3     3     0     0 -4.033427878E+00  5.686563851E+00 -4.477919286E+01  4.531866792E+01  5.109981218E-04  0.00000E+00  9.000E+00
     -11     1     3     3     0     0  4.033427878E+00 -5.686563851E+00 -3.574842313E+02  3.575522076E+02  5.109850054E-04  0.00000E+00  9.000E+00
</event>
<event>
      6  10011  1.00000E+00  1.10826E+00 -1.00000E+00  5.81329E-01
      21    -1     0     0   511   501  0.000000000E+00  0.000000000E+00  3.019609683E+01  3.019609683E+01  0.000000000E+00  0.00000E+00  9.000E+00
       2    -1     0     0   501     0  0.000000000E+00  0.000000000E+00 -7.109076047E+02  7.109076047E+02  0.000000000E+00  0.00000E+00  9.000E+00
      23     2     1     2     0     0  9.979039906E-01 -4.820998285E-01 -7.080290344E+02  7.137637035E+02  9.028999224E+01  0.00000E+00  9.000E+00
      11     1     3     3     0     0  6.277217793E-01  3.479299055E+01 -5.776268391E+02  5.786740978E+02  5.106962417E-04  0.00000E+00  9.000E+00
     -11     1     3     3     0     0  3.701822113E-01 -3.527509038E+01 -1.304021953E+02  1.350896057E+02  5.109924586E-04  0.00000E+00  9.000E+00
       2     1     1     2   511     0 -9.979039906E-01  4.820998285E-01  2.731752655E+01  2.733999797E+01  1.937079314E-06  0.00000E+00  9.000E+00
</event>
<event>
      6  10011  1.00000E+00  8.32124E+00 -1.00000E+00  2.05395E-01
      21    -1     0     0   501   511  0.000000000E+00  0.000000000E+00  4.860546432E+01  4.860546432E+01  0.000000000E+00  0.00000E+00  9.000E+00
      -1    -1     0     0     0   501  0.000000000E+00  0.000000000E+00 -7.117438871E+01  7.117438871E+01  0.000000000E+00  0.00000E+00  9.000E+00
      23     2     1     2     0     0  7.406699485E+00 -3.792603050E+00 -4.315593480E+01  9.757471775E+01  8.711571500E+01  0.00000E+00  9.000E+00
      11     1     3     3     0     0 -1.827300128E+01  2.741923327E+01 -4.653064106E+01  5.701594064E+01  5.110001488E-04  0.00000E+00  9.000E+00
     -11     1     3     3     0     0  2.567970077E+01 -3.121183632E+01  3.374706261E+00  4.055877711E+01  5.109994612E-04  0.00000E+00  9.000E+00
      -1     1     1     2     0   511 -7.406699485E+00  3.792603050E+00  2.058701041E+01  2.220513528E+01  3.841206060E-07  0.00000E+00  9.000E+00
</event>
<event>
      6  10011  1.00000E+00  6.12608E+01 -1.00000E+00  1.34196E-01
      21    -1     0     0   501   511  0.000000000E+00  0.000000000E+00  9.550443692E+01  9.550443692E+01  0.000000000E+00  0.00000E+00  9.000E+00
      -5    -1     0     0     0   501  0.000000000E+00  0.000000000E+00 -1.143322537E+02  1.143322537E+02  0.000000000E+00  0.00000E+00  9.000E+00
      23     2     1     2     0     0 -5.697962821E+01  2.249915014E+01 -6.588701383E+01  1.325873682E+02  9.739313024E+01  0.00000E+00  9.000E+00
      11     1     3     3     0     0  1.125834101E+01  4.246133058E+01 -2.667276073E+01  5.139212977E+01  5.109996228E-04  0.00000E+00  9.000E+00
     -11     1     3     3     0     0 -6.823796922E+01 -1.996218044E+01 -3.921425310E+01  8.119523840E+01  5.109989615E-04  0.00000E+00  9.000E+00
      -5     1     1     2     0   511  5.697962821E+01 -2.249915014E+01  4.705919706E+01  7.724932243E+01  6.327293439E-07  0.00000E+00  9.000E+00
</event>
<event>
      6  10011  1.00000E+00  6.18141E+00 -1.00000E+00  2.23404E-01
      -3    -1     0     0     0   501  0.000000000E+00  0.000000000E+00  2.459904974E+01  2.459904974E+01  0.000000000E+00  0.00000E+00  9.000E+00
      21    -1     0     0   501   511  0.000000000E+00  0.000000000E+00 -1.074165095E+02  1.074165095E+02  0.000000000E+00  0.00000E+00  9.000E+00
      23     2     1     2     0     0  6.779745534E-01  6.144118573E+00 -8.660428057E+01  1.247664314E+02  8.959995065E+01  0.00000E+00  9.000E+00
      11     1     3     3     0     0  1.915025998E+01  1.359071308E+01  1.044038602E+01  2.569905834E+01  5.109981127E-04  0.00000E+00  9.000E+00
     -11     1     3     3     0     0 -1.847228543E+01 -7.446594504E+00 -9.704466658E+01  9.906737309E+01  5.109973593E-04  0.00000E+00  9.000E+00
      -3     1     1     2     0   511 -6.779745534E-01 -6.144118573E+00  3.786820792E+00  7.249127827E+00  5.255993850E-08  0.00000E+00  9.000E+00
</event>
<event>
      6  10011  1.00000E+00  1.50911E+00 -1.00000E+00  4.31516E-01
      -2    -1     0     0     0   501  0.000000000E+00  0.000000000E+00  3.262121720E-01  3.262121720E-01  0.000000000E+00  0.00000E+00  9.000E+00
       2    -1     0     0   511     0  0.000000000E+00  0.000000000E+00 -3.622776797E+02  3.622776797E+02  0.000000000E+00  0.00000E+00  9.000E+00
      23     2     1     2     0     0 -1.893085610E-01 -1.497184539E+00 -3.221307572E+02  3.227545962E+02  2.000067989E+01  0.00000E+00  9.000E+00
      11     1     3     3     0     0 -4.629918518E+00 -8.691280014E+00 -1.054058454E+02  1.058648512E+02  5.109890675E-04  0.00000E+00  9.000E+00
     -11     1     3     3     0     0  4.440609957E+00  7.194095475E+00 -2.167249119E+02  2.168897449E+02  5.109764848E-04  0.00000E+00  9.000E+00
      21     1     1     2   511   501  1.893085610E-01  1.497184539E+00 -3.982071028E+01  3.984929568E+01  4.941032717E-07  0.00000E+00  9.000E+00
</event>
<event>
      6  10011  1.00000E+00  1.37896E+01 -1.00000E+00  1.80847E-01
      -1    -1     0     0     0   511  0.000000000E+00  0.000000000E+00  8.499589358E+00  8.499589358E+00  0.000000000E+00  0.00000E+00  9.000E+00
       1    -1     0     0   501     0  0.000000000E+00  0.000000000E+00 -3.300111223E+02  3.300111223E+02  0.000000000E+00  0.00000E+00  9.000E+00
      23     2     1     2     0     0 -1.288845385E+01  4.903180759E+00 -2.911700393E+02  3.051826505E+02  9.036761011E+01  0.00000E+00  9.000E+00
      11     1     3     3     0     0 -1.611753051E+01 -2.319085016E+01 -2.654767576E+02  2.669747163E+02  5.109940229E-04  0.00000E+00  9.000E+00
     -11     1     3     3     0     0  3.229076659E+00  2.809403092E+01 -2.569328164E+01  3.820793414E+01  5.110004077E-04  0.00000E+00  9.000E+00
      21     1     1     2   501   511  1.288845385E+01 -4.903180759E+00 -3.034149369E+01  3.332806121E+01  1.339033302E-07  0.00000E+00  9.000E+00
</event>
<event>
      6  10011  1.00000E+00  3.49629E+00 -1.00000E+00  2.77928E-01
       1    -1     0     0   511     0  0.000000000E+00  0.000000000E+00  2.047726788E+01  2.047726788E+01  0.000000000E+00  0.00000E+00  9.000E+00
      -1    -1     0     0     0   501  0.000000000E+00  0.000000000E+00 -1.199303749E+02  1.199303749E+02  0.000000000E+00  0.00000E+00  9.000E+00
      23     2     1     2     0     0  8.226329634E-01 -3.398133036E+00 -1.005690263E+02  1.367375871E+02  9.257869434E+01  0.00000E+00  9.000E+00
      11     1     3     3     0     0 -3.160447529E+01  1.438673014E+01 -6.059951261E+00  3.524973577E+01  5.109979273E-04  0.00000E+00  9.000E+00
     -11     1     3     3     0     0  3.242710825E+01 -1.778486318E+01 -9.450907500E+01  1.014878513E+02  5.109953961E-04  0.00000E+00  9.000E+00
      21     1     1     2   511   501 -8.226329634E-01  3.398133036E+00  1.115919228E+00  3.670055700E+00  5.716739113E-08  0.00000E+00  9.000E+00
</event>
<event>
      6  10011  1.00000E+00  7.82006E+00 -1.00000E+00  2.08904E-01
      21    -1     0     0   501   511  0.000000000E+00  0.000000000E+00  4.057095498E+01  4.057095498E+01  0.000000000E+00  0.00000E+00  9.000E+00
      -2    -1     0     0     0   501  0.000000000E+00  0.000000000E+00 -1.765002101E+01  1.765002101E+01  0.000000000E+00  0.00000E+00  9.000E+00
      23     2     1     2     0     0 -5.067147781E+00  5.956289848E+00 -1.229466420E+01  2.214755461E+01  1.667938944E+01  0.00000E+00  9.000E+00
      11     1     3     3     0     0  5.160795899E+00  1.405553032E+00 -9.015060053E+00  1.048239961E+01  5.109988991E-04  0.00000E+00  9.000E+00
     -11     1     3     3     0     0 -1.022794368E+01  4.550736817E+00 -3.279604150E+00  1.166515500E+01  5.109988817E-04  0.00000E+00  9.000E+00
      -2     1     1     2     0   511  5.067147781E+00 -5.956289848E+00  3.521559817E+01  3.607342137E+01  5.805718821E-07  0.00000E+00  9.000E+00
</event>
<event>
      6  10011  1.00000E+00  2.90889E+00 -1.00000E+00  3.00849E-01
      -2    -1     0     0     0   501  0.000000000E+00  0.000000000E+00  1.263293388E-01  1.263293388E-01  0.000000000E+00  0.00000E+00  9.000E+00
       2    -1     0     0   511     0  0.000000000E+00  0.000000000E+00 -8.833074657E+02  8.833074657E+02  0.000000000E+00  0.00000E+00  9.000E+00
      23     2     1     2     0     0 -8.101838336E-02  2.907766134E+00 -6.929550396E+02  6.931854585E+02  1.763324409E+01  0.00000E+00  9.000E+00
      11     1     3     3     0     0  2.261984804E+00 -4.074667003E+00 -5.646334489E+02  5.646526818E+02  5.108972759E-04  0.00000E+00  9.000E+00
     -11     1     3     3     0     0 -2.343003188E+00  6.982433138E+00 -1.283215907E+02  1.285327767E+02  5.110039424E-04  0.00000E+00  9.000E+00
      21     1     1     2   511   501  8.101838336E-02 -2.907766134E+00 -1.902260968E+02  1.902483366E+02  3.577768492E-06  0.00000E+00  9.000E+00
</event>
<event>
      6  10011  1.00000E+00  1.25387E+01 -1.00000E+00  1.84993E-01
       2    -1     0     0   501     0  0.000000000E+00  0.000000000E+00  6.105475920E+01  6.105475920E+01  0.000000000E+00  0.00000E+00  9.000E+00
      21    -1     0     0   511   501  0.000000000E+00  0.000000000E+00 -6.138932370E+00  6.138932370E+00  0.000000000E+00  0.00000E+00  9.000E+00
      23     2     1     2     0     0  1.708481073E+00 -1.242179049E+01  4.561697834E+01  5.158317044E+01  2.055954701E+01  0.00000E+00  9.000E+00
      11     1     3     3     0     0 -6.786270602E+00  1.365936039E+00  7.709012914E+00  1.036089428E+01  5.109990134E-04  0.00000E+00  9.000E+00
     -11     1     3     3     0     0  8.494751675E+00 -1.378772653E+01  3.790796543E+01  4.122227616E+01  5.109989213E-04  0.00000E+00  9.000E+00
       2     1     1     2   511     0 -1.708481073E+00  1.242179049E+01  9.298848483E+00  1.561052112E+01  1.569713740E-07  0.00000E+00  9.000E+00
</event>
<event>
      6  10011  1.00000E+00  1.62475E+01 -1.00000E+00  1.74130E-01
       2    -1     0     0   501     0  0.000000000E+00  0.000000000E+00  1.316533037E+01  1.316533037E+01  0.000000000E+00  0.00000E+00  9.000E+00
      21    -1     0     0   511   501  0.000000000E+00  0.000000000E+00 -3.245152288E+02  3.245152288E+02  0.000000000E+00  0.00000E+00  9.000E+00
      23     2     1     2     0     0  1.576636782E+01 -3.924859220E+00 -1.663385751E+02  1.917618600E+02  9.402184062E+01  0.00000E+00  9.000E+00
      11     1     3     3     0     0 -3.632525986E+00 -8.652738008E+00 -1.710007540E+02  1.712580596E+02  5.109846891E-04  0.00000E+00  9.000E+00
     -11     1     3     3     0     0  1.939889381E+01  4.727878788E+00  4.662178872E+00  2.050380040E+01  5.109968812E-04  0.00000E+00  9.000E+00
       2     1     1     2   511     0 -1.576636782E+01  3.924859220E+00 -1.450113233E+02  1.459186992E+02  2.111132234E-06  0.00000E+00  9.000E+00
</event>
<event>
      6  10011  1.00000E+00  1.18403E+00 -1.00000E+00  5.44096E-01
       1    -1     0     0   511     0  0.000000000E+00  0.000000000E+00  1.210904304E+03  1.210904304E+03  0.000000000E+00  0.00000E+00  9.000E+00
      -1    -1     0     0     0   501  0.000000000E+00  0.000000000E+00 -1.918787631E+00  1.918787631E+00  0.000000000E+00  0.00000E+00  9.000E+00
      23     2     1     2     0     0 -5.767790457E-01 -1.034043491E+00  1.135259114E+03  1.139087183E+03  9.330032702E+01  0.00000E+00  9.000E+00
      11     1     3     3     0     0  3.109246777E+01  3.118354131E+01  3.941218818E+02  3.965743467E+02  5.110353473E-04  0.00000E+00  9.000E+00
     -11     1     3     3     0     0 -3.166924681E+01 -3.221758480E+01  7.411372326E+02  7.425128359E+02  5.111251730E-04  0.00000E+00  9.000E+00
      21     1     1     2   511   501  5.767790457E-01  1.034043491E+00  7.372640166E+01  7.373590863E+01  3.601028315E-07  0.00000E+00  9.000E+00
</event>
<event>
      6  10011  1.00000E+00  1.16406E+01 -1.00000E+00  1.88373E-01
      -3    -1     0     0     0   501  0.000000000E+00  0.000000000E+00  5.792870140E+01  5.792870140E+01  0.000000000E+00  0.00000E+00  9.000E+00
       3    -1     0     0   511     0  0.000000000E+00  0.000000000E+00 -4.824562164E+01  4.824562164E+01  0.000000000E+00  0.00000E+00  9.000E+00
      23     2     1     2     0     0  1.125401580E+01  2.975040538E+00  1.461558437E+01  9.353180194E+01  9.164648892E+01  0.00000E+00  9.000E+00
      11     1     3     3     0     0  4.584956626E+01  1.903328332E+01  2.263029266E+01  5.455803100E+01  5.109994328E-04  0.00000E+00  9.000E+00
     -11     1     3     3     0     0 -3.459555046E+01 -1.605824278E+01 -8.014708292E+00  3.897377095E+01  5.109995093E-04  0.00000E+00  9.000E+00
      21     1     1     2   511   501 -1.125401580E+01 -2.975040538E+00 -4.932504611E+00  1.264252109E+01  1.336829131E-07  0.00000E+00  9.000E+00
</event>
<event>
      6  10011  1.00000E+00  1.82461E+01 -1.00000E+00  1.69683E-01
      -2    -1     0     0     0   501  0.000000000E+00  0.000000000E+00  1.145538273E+01  1.145538273E+01  0.000000000E+00  0.00000E+00  9.000E+00
       2    -1     0     0   511     0  0.000000000E+00  0.000000000E+00 -4.845202177E+02  4.845202177E+02  0.000000000E+00  0.00000E+00  9.000E+00
      23     2     1     2     0     0 -1.748956520E+01 -5.199457662E+00 -1.800709781E+02  2.024141598E+02  9.062569000E+01  0.00000E+00  9.000E+00
      11     1     3     3     0     0 -2.907576865E+01 -3.112313943E+01 -3.659009541E+01  5.615055844E+01  5.109970134E-04  0.00000E+00  9.000E+00
     -11     1     3     3     0     0  1.158620345E+01  2.592368177E+01 -1.434808827E+02  1.462636014E+02  5.110021191E-04  0.00000E+00  9.000E+00
      21     1     1     2   511   501  1.748956520E+01  5.199457662E+00 -2.929938569E+02  2.935614406E+02  2.075063608E-06  0.00000E+00  9.000E+00
</event>
<event>
      6  10011  1.00000E+00  1.32108E+01 -1.00000E+00  1.82692E-01
       2    -1     0     0   501     0  0.000000000E+00  0.000000000E+00  3.192156013E+02  3.192156013E+02  0.000000000E+00  0.00000E+00  9.000E+00
      21    -1     0     0   511   501  0.000000000E+00  0.000000000E+00 -1.481097260E+01  1.481097260E+01  0.000000000E+00  0.00000E+00  9.000E+00
      23     2     1     2     0     0  1.185294098E+01  5.833738916E+00  3.155750792E+02  3.167261784E+02  2.352268652E+01  0.00000E+00  9.000E+00
      11     1     3     3     0     0  1.869330159E+01  3.698889775E+00  2.588153953E+02  2.595159536E+02  5.110142545E-04  0.00000E+00  9.000E+00
     -11     1     3     3     0     0 -6.840360616E+00  2.134849141E+00  5.675968386E+01  5.721022484E+01  5.109990587E-04  0.00000E+00  9.000E+00
       2     1     1     2   511     0 -1.185294098E+01 -5.833738916E+00 -1.117045048E+01  1.730039547E+01  7.864598685E-07  0.00000E+00  9.000E+00
</event>
<event>
      6  10011  1.00000E+00  9.63231E+00 -1.00000E+00  1.97597E-01
       2    -1     0     0   511     0  0.000000000E+00  0.000000000E+00  3.718406162E+02  3.718406162E+02  0.000000000E+00  0.00000E+00  9.000E+00
      -2    -1     0     0     0   501  0.000000000E+00  0.000000000E+00 -7.177246227E+00  7.177246227E+00  0.000000000E+00  0.00000E+00  9.000E+00
      23     2     1     2     0     0  9.542436697E+00  1.312723258E+00  3.075720774E+02  3.211197016E+02  9.178506749E+01  0.00000E+00  9.000E+00
      11     1     3     3     0     0  3.259159515E+00 -1.199829108E+01  3.060715276E+02  3.063239480E+02  5.109541833E-04  0.00000E+00  9.000E+00
     -11     1     3     3     0     0  6.283277182E+00  1.331101434E+01  1.500549815E+00  1.479575361E+01  5.109991228E-04  0.00000E+00  9.000E+00
      21     1     1     2   511   501 -9.542436697E+00 -1.312723258E+00  5.709129251E+01  5.789816078E+01  8.295277154E-07  0.00000E+00  9.000E+00
</event>
<event>
      6  10011  1.00000E+00  2.80626E+00 -1.00000E+00  3.05804E-01
      -2    -1     0     0     0   501  0.000000000E+00  0.000000000E+00  4.035077878E+00  4.035077878E+00  0.000000000E+00  0.00000E+00  9.000E+00
       2    -1     0     0   511     0  0.000000000E+00  0.000000000E+00 -6.480815206E+02  6.480815206E+02  0.000000000E+00  0.00000E+00  9.000E+00
      23     2     1     2     0     0  2.804269563E+00 -1.056674318E-01 -5.259968778E+02  5.340336832E+02  9.225716385E+01  0.00000E+00  9.000E+00
      11     1     3     3     0     0  2.552014971E+01 -1.081267875E+01 -4.837776016E+01  5.575481810E+01  5.109957387E-04  0.00000E+00  9.000E+00
     -11     1     3     3     0     0 -2.271588015E+01  1.070701132E+01 -4.776191176E+02  4.782788651E+02  5.109930496E-04  0.00000E+00  9.000E+00
      21     1     1     2   511   501 -2.804269563E+00  1.056674318E-01 -1.180495650E+02  1.180829153E+02  1.650198483E-06  0.00000E+00  9.000E+00
</event>
<event>
      6  10011  1.00000E+00  2.68626E+00 -1.00000E+00  3.12072E-01
      -4    -1     0     0     0   501  0.000000000E+00  0.000000000E+00  5.779791555E+00  5.779791555E+00  0.000000000E+00  0.00000E+00  9.000E+00
      21    -1     0     0   501   511  0.000000000E+00  0.000000000E+00 -7.207064474E+01  7.207064474E+01  0.000000000E+00  0.00000E+00  9.000E+00
      23     2     1     2     0     0 -1.566974048E+00 -2.181874034E+00 -6.326840342E+01  7.380677650E+01  3.791218015E+01  0.00000E+00  9.000E+00
      11     1     3     3     0     0  1.154429105E+01 -8.599898489E+00 -5.536682733E+01  5.720764353E+01  5.109987982E-04  0.00000E+00  9.000E+00
     -11     1     3     3     0     0 -1.311126509E+01  6.418024455E+00 -7.901576095E+00  1.659913297E+01  5.109990625E-04  0.00000E+00  9.000E+00
      -4     1     1     2     0   511  1.566974048E+00  2.181874034E+00 -3.022449761E+00  4.043659793E+00  4.916642313E-08  0.00000E+00  9.000E+00
</event>
<event>
      6  10011  1.00000E+00  1.35076E+01 -1.00000E+00  1.81731E-01
      -2    -1     0     0     0   501  0.000000000E+00  0.000000000E+00  1.670757138E+00  1.670757138E+00  0.000000000E+00  0.00000E+00  9.000E+00
       2    -1     0     0   511     0  0.000000000E+00  0.000000000E+00 -3.430466497E+02  3.430466497E+02  0.000000000E+00  0.00000E+00  9.000E+00
      23     2     1     2     0     0  1.349810212E+01  5.059219901E-01 -1.988874105E+02  2.015901130E+02  2.999861481E+01  0.00000E+00  9.000E+00
      11     1     3     3     0     0  2.301436432E+01  2.582459369E+00 -1.404725011E+02  1.423687242E+02  5.109949216E-04  0.00000E+00  9.000E+00
     -11     1     3     3     0     0 -9.516262200E+00 -2.076537379E+00 -5.841490936E+01  5.922138878E+01  5.109974786E-04  0.00000E+00  9.000E+00
      21     1     1     2   511   501 -1.349810212E+01 -5.059219901E-01 -1.424884821E+02  1.431272939E+02  5.670278546E-07  0.00000E+00  9.000E+00
</event>
<event>
      6  10011  1.00000E+00  3.25526E+00 -1.00000E+00  2.86376E-01
      -2    -1     0     0     0   501  0.000000000E+00  0.000000000E+00  8.039013968E-01  8.039013968E-01  0.000000000E+00  0.00000E+00  9.000E+00
       2    -1     0     0   511     0  0.000000000E+00  0.000000000E+00 -9.218133122E+02  9.218133122E+02  0.000000000E+00  0.00000E+00  9.000E+00
      23     2     1     2     0     0  3.099271552E-01 -3.240472529E+00 -2.938241476E+02  2.954235026E+02  3.052571812E+01  0.00000E+00  9.000E+00
      11     1     3     3     0     0 -1.415903141E+01  3.399559356E-01 -9.606604574E+01  9.710447408E+01  5.109972133E-04  0.00000E+00  9.000E+00
     -11     1     3     3     0     0  1.446895857E+01 -3.580428464E+00 -1.977581018E+02  1.983190285E+02  5.110198997E-04  0.00000E+00  9.000E+00
      21     1     1     2   511   501 -3.099271552E-01  3.240472529E+00 -6.271852633E+02  6.271937111E+02  8.109737087E-06  0.00000E+00  9.000E+00
</event>
<event>
      6  10011  1.00000E+00  3.58525E+00 -1.00000E+00  2.75081E-01
      21    -1     0     0   501   511  0.000000000E+00  0.000000000E+00  3.309457274E+00  3.309457274E+00  0.000000000E+00  0.00000E+00  9.000E+00
      -1    -1     0     0     0   501  0.000000000E+00  0.000000000E+00 -8.096440114E+02  8.096440114E+02  0.000000000E+00  0.00000E+00  9.000E+00
      23     2     1     2     0     0 -1.373130778E+00 -3.311881134E+00 -8.021735953E+02  8.074609626E+02  9.218391977E+01  0.00000E+00  9.000E+00
      11     1     3     3     0     0 -2.733124816E+01 -3.142131370E+01 -6.154600804E+02  6.168674142E+02  5.109428357E-04  0.00000E+00  9.000E+00
     -11     1     3     3     0     0  2.595811739E+01  2.810943257E+01 -1.867135149E+02  1.905935484E+02  5.110299803E-04  0.00000E+00  9.000E+00
      -1     1     1     2     0   511  1.373130778E+00  3.311881134E+00 -4.160958838E+00  5.492506097E+00  2.599274422E-07  0.00000E+00  9.000E+00
</event>
<event>
      6  10011  1.00000E+00  1.39771E+01 -1.00000E+00  1.80274E-01
      -2    -1     0     0     0   501  0.000000000E+00  0.000000000E+00  3.982864774E+02  3.982864774E+02  0.000000000E+00  0.00000E+00  9.000E+00
      21    -1     0     0   501   511  0.000000000E+00  0.000000000E+00 -1.388515699E+00  1.388515699E+00  0.000000000E+00  0.00000E+00  9.000E+00
      23     2     1     2     0     0  1.369008847E+01 -2.817722750E+00  2.012144637E+02  2.034929616E+02  2.695861541E+01  0.00000E+00  9.000E+00
      11     1     3     3     0     0  9.286775763E+00  1.084450735E+01  6.647087534E+01  6.798694590E+01  5.110032002E-04  0.00000E+00  9.000E+00
     -11     1     3     3     0     0  4.403312703E+00 -1.366223010E+01  1.347435884E+02  1.355060157E+02  5.110065357E-04  0.00000E+00  9.000E+00
      -2     1     1     2     0   511 -1.369008847E+01  2.817722750E+00  1.956834980E+02  1.961820314E+02  2.208591379E-06  0.00000E+00  9.000E+00
</event>
<event>
      6  10011  1.00000E+00  3.98582E+00 -1.00000E+00  2.63725E-01
      -4    -1     0     0     0   511  0.000000000E+00  0.000000000E+00  1.338745072E+01  1.338745072E+01  0.000000000E+00  0.00000E+00  9.000E+00
       4    -1     0     0   501     0  0.000000000E+00  0.000000000E+00 -2.367628824E+02  2.367628824E+02  0.000000000E+00  0.00000E+00  9.000E+00
      23     2     1     2     0     0  3.945044622E+00 -5.686945323E-01 -2.270096593E+02  2.447564106E+02  9.141350194E+01  0.00000E+00  9.000E+00
      11     1     3     3     0     0 -4.349120112E+01  3.963829501E+00 -1.009837432E+02  1.100223292E+02  5.109970282E-04  0.00000E+00  9.000E+00
     -11     1     3     3     0     0  4.743624574E+01 -4.532524034E+00 -1.260259161E+02  1.347340814E+02  5.109971264E-04  0.00000E+00  9.000E+00
      21     1     1     2   501   511 -3.945044622E+00  5.686945323E-01  3.634227560E+00  5.393922552E+00  2.300762632E-07  0.00000E+00  9.000E+00
</event>
<event>
      6  10011  1.00000E+00  5.28357E+00 -1.00000E+00  2.34320E-01
       2    -1     0     0   501     0  0.000000000E+00  0.000000000E+00  1.277259871E+02  1.277259871E+02  0.000000000E+00  0.00000E+00  9.000E+00
      21    -1     0     0   511   501  0.000000000E+00  0.000000000E+00 -3.037068277E+00  3.037068277E+00  0.000000000E+00  0.00000E+00  9.000E+00
      23     2     1     2     0     0 -4.209923615E+00 -3.192587681E+00  1.161656238E+02  1.207349633E+02  3.247403782E+01  0.00000E+00  9.000E+00
      11     1     3     3     0     0 -1.269845791E+01 -4.019640339E+00  1.083536379E+02  1.091692227E+02  5.110000238E-04  0.00000E+00  9.000E+00
     -11     1     3     3     0     0  8.488534291E+00  8.270526587E-01  7.811985850E+00  1.156574052E+01  5.109990940E-04  0.00000E+00  9.000E+00
       2     1     1     2   511     0  4.209923615E+00  3.192587681E+00  8.523294990E+00  1.002809206E+01  1.159038334E-07  0.00000E+00  9.000E+00
</event>
<event>
      6  10011  1.00000E+00  3.06320E+00 -1.00000E+00  2.94011E-01
       1    -1     0     0   501     0  0.000000000E+00  0.000000000E+00  2.080221962E+02  2.080221962E+02  0.000000000E+00  0.00000E+00  9.000E+00
      -1    -1     0     0     0   511  0.000000000E+00  0.000000000E+00 -6.825528694E-01  6.825528694E-01  0.000000000E+00  0.00000E+00  9.000E+00
      23     2     1     2     0     0  4.816598239E-03  3.063198170E+00  1.880840050E+02  1.892069848E+02  2.035453099E+01  0.00000E+00  9.000E+00
      11     1     3     3     0     0 -1.000947343E+00 -5.706265440E+00  1.500632084E+02  1.501749975E+02  5.110075681E-04  0.00000E+00  9.000E+00
     -11     1     3     3     0     0  1.005763941E+00  8.769463610E+00  3.802079663E+01  3.903198726E+01  5.110004921E-04  0.00000E+00  9.000E+00
      21     1     1     2   501   511 -4.816598239E-03 -3.063198170E+00  1.925563825E+01  1.949776425E+01  1.696541538E-07  0.00000E+00  9.000E+00
</event>
<event>
      6  10011  1.00000E+00  7.64281E+00 -1.00000E+00  2.10231E-01
       3    -1     0     0   501     0  0.000000000E+00  0.000000000E+00  6.267043386E-01  6.267043386E-01  0.000000000E+00  0.00000E+00  9.000E+00
      -3    -1     0     0     0   511  0.000000000E+00  0.000000000E+00 -5.991975243E+02  5.991975243E+02  0.000000000E+00  0.00000E+00  9.000E+00
      23     2     1     2     0     0  6.849438793E+00 -3.390827084E+00 -2.233017568E+02  2.244773461E+02  2.163311742E+01  0.00000E+00  9.000E+00
      11     1     3     3     0     0  1.362459908E+01 -3.482417646E+00 -1.883902602E+02  1.889143908E+02  5.110109348E-04  0.00000E+00  9.000E+00
     -11     1     3     3     0     0 -6.775160285E+00  9.159056210E-02 -3.491149666E+01  3.556295524E+01  5.110015261E-04  0.00000E+00  9.000E+00
      21     1     1     2   501   511 -6.849438793E+00  3.390827084E+00 -3.752690631E+02  3.753468826E+02  4.146701606E-06  0.00000E+00  9.000E+00
</event>
<event>
      6  10011  1.00000E+00  1.00095E+01 -1.00000E+00  1.95651E-01
      -2    -1     0     0     0   511  0.000000000E+00  0.000000000E+00  3.876458459E+00  3.876458459E+00  0.000000000E+00  0.00000E+00  9.000E+00
       2    -1     0     0   501     0  0.000000000E+00  0.000000000E+00 -6.939522658E+02  6.939522658E+02  0.000000000E+00  0.00000E+00  9.000E+00
      23     2     1     2     0     0  7.987930954E+00  6.031834770E+00 -6.388259292E+02  6.456105274E+02  9.281268894E+01  0.00000E+00  9.000E+00
      11     1     3     3     0     0 -3.367480487E+01  2.040740809E+01 -4.495468527E+02  4.512680218E+02  5.110016012E-04  0.00000E+00  9.000E+00
     -11     1     3     3     0     0  4.166273582E+01 -1.437557332E+01 -1.892790766E+02  1.943425056E+02  5.110094122E-04  0.00000E+00  9.000E+00
      21     1     1     2   501   511 -7.987930954E+00 -6.031834770E+00 -5.124987815E+01  5.221819685E+01  4.616955931E-07  0.00000E+00  9.000E+00
</event>
<event>
      6  10011  1.00000E+00  4.05781E+00 -1.00000E+00  2.61903E-01
      21    -1     0     0   511   501  0.000000000E+00  0.000000000E+00  1.045440883E+00  1.045440883E+00  0.000000000E+00  0.00000E+00  9.000E+00
       2    -1     0     0   501     0  0.000000000E+00  0.000000000E+00 -5.311039544E+02  5.311039544E+02  0.000000000E+00  0.00000E+00  9.000E+00
      23     2     1     2     0     0  4.052424982E+00  2.089596208E-01 -5.068703625E+02  5.086088736E+02  4.182052290E+01  0.00000E+00  9.000E+00
      11     1     3     3     0     0  1.428038692E+01  2.622434624E+00 -6.451082723E+01  6.612452982E+01  5.109971077E-04  0.00000E+00  9.000E+00
     -11     1     3     3     0     0 -1.022796193E+01 -2.413475003E+00 -4.423595353E+02  4.424843438E+02  5.109641261E-04  0.00000E+00  9.000E+00
       2     1     1     2   511     0 -4.052424982E+00 -2.089596208E-01 -2.318815101E+01  2.354052165E+01  5.017400431E-07  0.00000E+00  9.000E+00
</event>
<event>
      6  10011  1.00000E+00  1.25681E+01 -1.00000E+00  1.84888E-01
      -1    -1     0     0     0   501  0.000000000E+00  0.000000000E+00  9.752783199E+01  9.752783199E+01  0.000000000E+00  0.00000E+00  9.000E+00
      21    -1     0     0   501   511  0.000000000E+00  0.000000000E+00 -2.977448603E+01  2.977448603E+01  0.000000000E+00  0.00000E+00  9.000E+00
      23     2     1     2     0     0  5.772225292E+00  1.116419903E+01  6.739623360E+01  1.147291142E+02  9.199217042E+01  0.00000E+00  9.000E+00
      11     1     3     3     0     0 -2.622255203E+01 -3.047910740E+01  2.629056198E+01  4.803948243E+01  5.109976718E-04  0.00000E+00  9.000E+00
     -11     1     3     3     0     0  3.199477732E+01  4.164330644E+01  4.110567162E+01  6.668963178E+01  5.109985801E-04  0.00000E+00  9.000E+00
      -1     1     1     2     0   511 -5.772225292E+00 -1.116419903E+01  3.571123560E-01  1.257320381E+01  5.482556067E-08  0.00000E+00  9.000E+00
</event>
<event>
      6  10011  1.00000E+00  6.13920E+00 -1.00000E+00  2.23859E-01
       4    -1     0     0   501     0  0.000000000E+00  0.000000000E+00  9.024994028E+00  9.024994028E+00  0.000000000E+00  0.00000E+00  9.000E+00
      21    -1     0     0   511   501  0.000000000E+00  0.000000000E+00 -2.695441269E+01  2.695441269E+01  0.000000000E+00  0.00000E+00  9.000E+00
      23     2     1     2     0     0  5.630244278E+00 -2.447464633E+00 -6.870334266E+00  2.333056956E+01  2.143418413E+01  0.00000E+00  9.000E+00
      11     1     3     3     0     0 -8.014591850E-01 -6.362367887E+00 -1.241936940E+01  1.397722427E+01  5.109988937E-04  0.00000E+00  9.000E+00
     -11     1     3     3     0     0  6.431703463E+00  3.914903254E+00  5.549035130E+00  9.353345287E+00  5.109988627E-04  0.00000E+00  9.000E+00
       4     1     1     2   511     0 -5.630244278E+00  2.447464633E+00 -1.105908440E+01  1.264883716E+01  1.297984376E-07  0.00000E+00  9.000E+00
</event>
<event>
      6  10011  1.00000E+00  4.59945E+01 -1.00000E+00  1.41147E-01
       1    -1     0     0   501     0  0.000000000E+00  0.000000000E+00  1.841242411E+03  1.841242411E+03  0.000000000E+00  0.00000E+00  9.000E+00
      21    -1     0     0   511   501  0.000000000E+00  0.000000000E+00 -2.979211369E+00  2.979211369E+00  0.000000000E+00  0.00000E+00  9.000E+00
      23     2     1     2     0     0 -7.134532760E+00 -4.543780205E+01  1.255919280E+03  1.260064164E+03  9.117545810E+01  0.00000E+00  9.000E+00
      11     1     3     3     0     0  2.953456447E+01 -4.926843217E+01  5.081315488E+02  5.113681060E+02  5.111764254E-04  0.00000E+00  9.000E+00
     -11     1     3     3     0     0 -3.666909723E+01  3.830630129E+00  7.477877315E+02  7.486960584E+02  5.112780671E-04  0.00000E+00  9.000E+00
       1     1     1     2   511     0  7.134532760E+00  4.543780205E+01  5.823439191E+02  5.841574578E+02  3.006343892E-06  0.00000E+00  9.000E+00
</event>
<event>
      6  10011  1.00000E+00  2.46123E+01 -1.00000E+00  1.59223E-01
      21    -1     0     0   511   501  0.000000000E+00  0.000000000E+00  7.619565976E+00  7.619565976E+00  0.000000000E+00  0.00000E+00  9.000E+00
       2    -1     0     0   501     0  0.000000000E+00  0.000000000E+00 -1.031604710E+02  1.031604710E+02  0.000000000E+00  0.00000E+00  9.000E+00
      23     2     1     2     0     0 -5.136906053E+00  2.407022667E+01 -5.669884503E+01  6.479667868E+01  1.944445744E+01  0.00000E+00  9.000E+00
      11     1     3     3     0     0 -4.785596956E+00  1.992107163E+01 -5.705061073E+01  6.061784571E+01  5.109995452E-04  0.00000E+00  9.000E+00
     -11     1     3     3     0     0 -3.513090971E-01  4.149155045E+00  3.517657048E-01  4.178832976E+00  5.109989402E-04  0.00000E+00  9.000E+00
       2     1     1     2   511     0  5.136906053E+00 -2.407022667E+01 -3.884206004E+01  4.598335833E+01  3.291774099E-07  0.00000E+00  9.000E+00
</event>
<event>
      6  10011  1.00000E+00  1.40027E+01 -1.00000E+00  1.80196E-01
       2    -1     0     0   511     0  0.000000000E+00  0.000000000E+00  1.233420937E+02  1.233420937E+02  0.000000000E+00  0.00000E+00  9.000E+00
      -2    -1     0     0     0   501  0.000000000E+00  0.000000000E+00 -5.297905890E+00  5.297905890E+00  0.000000000E+00  0.00000E+00  9.000E+00
      23     2     1     2     0     0 -8.022338432E+00 -1.147686491E+01  3.513869207E+01  4.456028999E+01  2.355452019E+01  0.00000E+00  9.000E+00
      11     1     3     3     0     0 -6.102857961E+00 -6.896949088E+00  1.393800148E-01  9.210440221E+00  5.109989237E-04  0.00000E+00  9.000E+00
     -11     1     3     3     0     0 -1.919480470E+00 -4.579915826E+00  3.499931205E+01  3.534984977E+01  5.109990309E-04  0.00000E+00  9.000E+00
      21     1     1     2   511   501  8.022338432E+00  1.147686491E+01  8.290549573E+01  8.407970959E+01  1.480548662E-06  0.00000E+00  9.000E+00
</event>
<event>
      6  10011  1.00000E+00  2.15410E+01 -1.00000E+00  1.63712E-01
      21    -1     0     0   511   501  0.000000000E+00  0.000000000E+00  6.747710109E+00  6.747710109E+00  0.000000000E+00  0.00000E+00  9.000E+00
       2    -1     0     0   501     0  0.000000000E+00  0.000000000E+00 -5.604293259E+02  5.604293259E+02  0.000000000E+00  0.00000E+00  9.000E+00
      23     2     1     2     0     0 -6.535046860E+00 -2.052574757E+01 -5.107615071E+02  5.191546570E+02  9.044461096E+01  0.00000E+00  9.000E+00
      11     1     3     3     0     0  1.770305188E+01  2.978785782E+01 -2.566441531E+02  2.589728477E+02  5.110249261E-04  0.00000E+00  9.000E+00
     -11     1     3     3     0     0 -2.423809874E+01 -5.031360539E+01 -2.541173540E+02  2.601818093E+02  5.109740757E-04  0.00000E+00  9.000E+00
       2     1     1     2   511     0  6.535046860E+00  2.052574757E+01 -4.292010868E+01  4.802237895E+01  4.866318641E-07  0.00000E+00  9.000E+00
</event>
<event>
      6  10011  1.00000E+00  2.84849E+00 -1.00000E+00  3.03723E-01
      -1    -1     0     0     0   511  0.000000000E+00  0.000000000E+00  1.770607140E+00  1.770607140E+00  0.000000000E+00  0.00000E+00  9.000E+00
       1    -1     0     0   501     0  0.000000000E+00  0.000000000E+00 -4.599289259E+02  4.599289259E+02  0.000000000E+00  0.00000E+00  9.000E+00
      23     2     1     2     0     0  1.347338631E+00  2.509693226E+00 -4.523272344E+02  4.552098931E+02  5.106863950E+01  0.00000E+00  9.000E+00
      11     1     3     3     0     0  1.581226257E+00  5.764998139E-02  1.002721121E+00  1.873245820E+00  5.109990066E-04  0.00000E+00  9.000E+00
     -11     1     3     3     0     0 -2.338876256E-01  2.452043244E+00 -4.533299555E+02  4.533366473E+02  5.110093044E-04  0.00000E+00  9.000E+00
      21     1     1     2   501   511 -1.347338631E+00 -2.509693226E+00 -5.831084430E+00  6.489639982E+00  2.507662776E-07  0.00000E+00  9.000E+00
</event>
<event>
      6  10011  1.00000E+00  2.09370E+00 -1.00000E+00  3.53837E-01
      -4    -1     0     0     0   501  0.000000000E+00  0.000000000E+00  7.420104342E+00  7.420104342E+00  0.000000000E+00  0.00000E+00  9.000E+00
      21    -1     0     0   501   511  0.000000000E+00  0.000000000E+00 -3.774173887E+01  3.774173887E+01  0.000000000E+00  0.00000E+00  9.000E+00
      23     2     1     2     0     0  1.377489956E+00  1.576739797E+00 -6.597397173E+00  2.134539879E+01  2.019199874E+01  0.00000E+00  9.000E+00
      11     1     3     3     0     0 -8.958826095E+00 -9.983590510E-01 -5.678098049E+00  1.065354793E+01  5.109989635E-04  0.00000E+00  9.000E+00
     -11     1     3     3     0     0  1.033631605E+01  2.575098848E+00 -9.192991237E-01  1.069185086E+01  5.109988881E-04  0.00000E+00  9.000E+00
      -4     1     1     2     0   511 -1.377489956E+00 -1.576739797E+00 -2.372423736E+01  2.381644443E+01  2.006130221E-07  0.00000E+00  9.000E+00
</event>
<event>
      6  10011  1.00000E+00  1.33339E+01 -1.00000E+00  1.82290E-01
       2    -1     0     0   501     0  0.000000000E+00  0.000000000E+00  4.475411203E+02  4.475411203E+02  0.000000000E+00  0.00000E+00  9.000E+00
      21    -1     0     0   511   501  0.000000000E+00  0.000000000E+00 -1.189167749E+01  1.189167749E+01  0.000000000E+00  0.00000E+00  9.000E+00
      23     2     1     2     0     0 -1.173898815E+01  6.323629782E+00  4.431483559E+02  4.441348948E+02  2.641112120E+01  0.00000E+00  9.000E+00
      11     1     3     3     0     0 -1.824253520E+01  3.082400786E+00  3.958026892E+02  3.962348547E+02  5.109514298E-04  0.00000E+00  9.000E+00
     -11     1     3     3     0     0  6.503547058E+00  3.241228996E+00  4.734566666E+01  4.790004010E+01  5.110001529E-04  0.00000E+00  9.000E+00
       2     1     1     2   511     0  1.173898815E+01 -6.323629782E+00 -7.498913119E+00  1.529790294E+01  7.041931928E-07  0.00000E+00  9.000E+00
</event>
<event>
      6  10011  1.00000E+00  4.73686E+01 -1.00000E+00  1.40399E-01
       2    -1     0     0   501     0  0.000000000E+00  0.000000000E+00  6.126023155E+02  6.126023155E+02  0.000000000E+00  0.00000E+00  9.000E+00
      21    -1     0     0   511   501  0.000000000E+00  0.000000000E+00 -6.779681948E+00  6.779681948E+00  0.000000000E+00  0.00000E+00  9.000E+00
      23     2     1     2     0     0 -4.588216294E+01 -1.177332667E+01  5.102933606E+02  5.127535487E+02  1.652584980E+01  0.00000E+00  9.000E+00
      11     1     3     3     0     0 -2.810125144E+00 -6.060593704E+00  6.141977376E+01  6.178200554E+01  5.109968683E-04  0.00000E+00  9.000E+00
     -11     1     3     3     0     0 -4.307203779E+01 -5.712732963E+00  4.488735868E+02  4.509715431E+02  5.110042848E-04  0.00000E+00  9.000E+00
       2     1     1     2   511     0  4.588216294E+01  1.177332667E+01  9.552927295E+01  1.066284488E+02  1.659323085E-07  0.00000E+00  9.000E+00
</event>
<event>
      5  10011  1.00000E+00  8.94427E-01 -1.00000E+00  4.55525E-01
      -4    -1     0     0     0   501  0.000000000E+00  0.000000000E+00  9.195509280E+00  9.195509280E+00  0.000000000E+00  0.00000E+00  9.000E+00
       4    -1     0     0   501     0  0.000000000E+00  0.000000000E+00 -1.280875049E+01  1.280875049E+01  0.000000000E+00  0.00000E+00  9.000E+00
      23     2     1     2     0     0  0.000000000E+00  0.000000000E+00 -3.613241213E+00  2.200425977E+01  2.170557385E+01  0.00000E+00  9.000E+00
      11     1     3     3     0     0  2.970019019E+00  8.940251473E+00 -7.269077062E+00  1.189910043E+01  5.109988990E-04  0.00000E+00  9.000E+00
     -11     1     3     3     0     0 -2.970019019E+00 -8.940251473E+00  3.655835849E+00  1.010515935E+01  5.109989149E-04  0.00000E+00  9.000E+00
</event>
<event>
      6  10011  1.00000E+00  7.43552E+00 -1.00000E+00  2.11845E-01
      -2    -1     0     0     0   511  0.000000000E+00  0.000000000E+00  1.861006322E+02  1.861006322E+02  0.000000000E+00  0.00000E+00  9.000E+00
       2    -1     0     0   501     0  0.000000000E+00  0.000000000E+00 -3.101519949E+01  3.101519949E+01  0.000000000E+00  0.00000E+00  9.000E+00
      23     2     1     2     0     0  7.378831171E+00 -9.164478789E-01  3.928157374E+01  1.010735085E+02  9.283062563E+01  0.00000E+00  9.000E+00
      11     1     3     3     0     0  2.216800122E+01  3.523752190E+01 -5.109767616E+00  4.194297263E+01  5.109989554E-04  0.00000E+00  9.000E+00
     -11     1     3     3     0     0 -1.478917005E+01 -3.615396978E+01  4.439134135E+01  5.913053584E+01  5.109995399E-04  0.00000E+00  9.000E+00
      21     1     1     2   501   511 -7.378831171E+00  9.164478789E-01  1.158038590E+02  1.160423232E+02  1.748459356E-06  0.00000E+00  9.000E+00
</event>
<event>
      6  10011  1.00000E+00  2.12508E+00 -1.00000E+00  3.51009E-01
       2    -1     0     0   501     0  0.000000000E+00  0.000000000E+00  5.663273392E+02  5.663273392E+02  0.000000000E+00  0.00000E+00  9.000E+00
      -2    -1     0     0     0   511  0.000000000E+00  0.000000000E+00 -3.233827828E-01  3.233827828E-01  0.000000000E+00  0.00000E+00  9.000E+00
      23     2     1     2     0     0  1.355851712E+00  1.636350597E+00  5.507904281E+02  5.512894908E+02  2.335575071E+01  0.00000E+00  9.000E+00
      11     1     3     3     0     0 -5.340760806E+00 -6.013436069E+00  4.290195077E+02  4.290948883E+02  5.109893369E-04  0.00000E+00  9.000E+00
     -11     1     3     3     0     0  6.696612519E+00  7.649786666E+00  1.217709203E+02  1.221946026E+02  5.109890527E-04  0.00000E+00  9.000E+00
      21     1     1     2   501   511 -1.355851712E+00 -1.636350597E+00  1.521352835E+01  1.536123113E+01  1.839026071E-07  0.00000E+00  9.000E+00
</event>
<event>
      6  10011  1.00000E+00  1.22383E+00 -1.00000E+00  5.27330E-01
       2    -1     0     0   501     0  0.000000000E+00  0.000000000E+00  7.922619670E+02  7.922619670E+02  0.000000000E+00  0.00000E+00  9.000E+00
      -2    -1     0     0     0   511  0.000000000E+00  0.000000000E+00 -1.276686181E-01  1.276686181E-01  0.000000000E+00  0.00000E+00  9.000E+00
      23     2     1     2     0     0 -1.184341743E+00 -3.083697451E-01  7.695719738E+02  7.697941438E+02  1.845273164E+01  0.00000E+00  9.000E+00
      11     1     3     3     0     0 -5.710612735E+00  2.652702954E+00  9.884052790E+01  9.904088997E+01  5.109911932E-04  0.00000E+00  9.000E+00
     -11     1     3     3     0     0  4.526270993E+00 -2.961072699E+00  6.707314459E+02  6.707532539E+02  5.113513566E-04  0.00000E+00  9.000E+00
      21     1     1     2   501   511  1.184341743E+00  3.083697451E-01  2.256232462E+01  2.259549180E+01  3.646981195E-07  0.00000E+00  9.000E+00
</event>
<event>
      6  10011  1.00000E+00  5.80585E+01 -1.00000E+00  1.35444E-01
      -5    -1     0     0     0   511  0.000000000E+00  0.000000000E+00  2.676358684E+02  2.676358684E+02  0.000000000E+00  0.00000E+00  9.000E+00
       5    -1     0     0   501     0  0.000000000E+00  0.000000000E+00 -3.233529917E+01  3.233529917E+01  0.000000000E+00  0.00000E+00  9.000E+00
      23     2     1     2     0     0 -8.733973440E+00 -5.739782854E+01  8.060016038E+01  1.347349442E+02  9.102926082E+01  0.00000E+00  9.000E+00
      11     1     3     3     0     0 -1.638334341E+01  1.151782301E+01 -8.565660821E+00  2.178175231E+01  5.109992729E-04  0.00000E+00  9.000E+00
     -11     1     3     3     0     0  7.649369974E+00 -6.891565155E+01  8.916582120E+01  1.129531919E+02  5.110019318E-04  0.00000E+00  9.000E+00
      21     1     1     2   501   511  8.733973440E+00  5.739782854E+01  1.547004089E+02  1.652362234E+02  1.283231386E-06  0.00000E+00  9.000E+00
</event>
<event>
      6  10011  1.00000E+00  2.45201E+00 -1.00000E+00  3.26087E-01
       3    -1     0     0   501     0  0.000000000E+00  0.000000000E+00  6.460902576E+00  6.460902576E+00  0.000000000E+00  0.00000E+00  9.000E+00
      -3    -1     0     0     0   511  0.000000000E+00  0.000000000E+00 -3.476972192E+02  3.476972192E+02  0.000000000E+00  0.00000E+00  9.000E+00
      23     2     1     2     0     0 -2.111243420E+00  1.246994189E+00 -3.230388023E+02  3.357961537E+02  9.164593127E+01  0.00000E+00  9.000E+00
      11     1     3     3     0     0  2.077003841E+01 -3.806510770E+01 -1.165139771E+02  1.243215741E+02  5.110030177E-04  0.00000E+00  9.000E+00
     -11     1     3     3     0     0 -2.288128183E+01  3.931210189E+01 -2.065248252E+02  2.114745796E+02  5.110164027E-04  0.00000E+00  9.000E+00
      21     1     1     2   501   511  2.111243420E+00 -1.246994189E+00 -1.819751431E+01  1.836196804E+01  2.197605551E-07  0.00000E+00  9.000E+00
</event>
<event>
      6  10011  1.00000E+00  3.30598E+00 -1.00000E+00  2.84502E-01
       2    -1     0     0   501     0  0.000000000E+00  0.000000000E+00  7.436065232E+01  7.436065232E+01  0.000000000E+00  0.00000E+00  9.000E+00
      21    -1     0     0   511   501  0.000000000E+00  0.000000000E+00 -3.057046095E+00  3.057046095E+00  0.000000000E+00  0.00000E+00  9.000E+00
      23     2     1     2     0     0  3.271120348E+00 -4.788281319E-01  7.134311462E+01  7.411148221E+01  1.979248055E+01  0.00000E+00  9.000E+00
      11     1     3     3     0     0 -5.174225785E+00 -7.251904247E+00  3.900464500E+01  4.000906222E+01  5.109986404E-04  0.00000E+00  9.000E+00
     -11     1     3     3     0     0  8.445346133E+00  6.773076115E+00  3.233846962E+01  3.410241999E+01  5.109987659E-04  0.00000E+00  9.000E+00
       2     1     1     2   511     0 -3.271120348E+00  4.788281319E-01 -3.950839630E-02  3.306216210E+00  4.249211698E-08  0.00000E+00  9.000E+00
</event>
<event>
      6  10011  1.00000E+00  4.74803E+00 -1.00000E+00  2.46983E-01
      -4    -1     0     0     0   511  0.000000000E+00  0.000000000E+00  1.166272874E+01  1.166272874E+01  0.000000000E+00  0.00000E+00  9.000E+00
       4    -1     0     0   501     0  0.000000000E+00  0.000000000E+00 -2.023988605E+02  2.023988605E+02  0.000000000E+00  0.00000E+00  9.000E+00
      23     2     1     2     0     0  2.069991804E+00  4.273041256E+00 -1.861992858E+02  2.074944956E+02  9.143985965E+01  0.00000E+00  9.000E+00
      11     1     3     3     0     0  2.456698937E+01 -6.291899044E+00 -1.801346980E+02  1.819110617E+02  5.109873519E-04  0.00000E+00  9.000E+00
     -11     1     3     3     0     0 -2.249699756E+01  1.056494030E+01 -6.064587779E+00  2.558343386E+01  5.109983260E-04  0.00000E+00  9.000E+00
      21     1     1     2   501   511 -2.069991804E+00 -4.273041256E+00 -4.536846022E+00  6.567093685E+00  5.490855490E-08  0.00000E+00  9.000E+00
</event>
<event>
      6  10011  1.00000E+00  3.83415E+00 -1.00000E+00  2.67768E-01
      -1    -1     0     0     0   501  0.000000000E+00  0.000000000E+00  3.428574173E+00  3.428574173E+00  0.000000000E+00  0.00000E+00  9.000E+00
       1    -1     0     0   511     0  0.000000000E+00  0.000000000E+00 -6.781490170E+02  6.781490170E+02  0.000000000E+00  0.00000E+00  9.000E+00
      23     2     1     2     0     0 -2.193078144E+00 -3.145019053E+00 -6.020933809E+02  6.088493927E+02  9.036837316E+01  0.00000E+00  9.000E+00
      11     1     3     3     0     0 -1.917870970E+01 -6.199024034E+00 -5.820542223E+02  5.824030980E+02  5.110708151E-04  0.00000E+00  9.000E+00
     -11     1     3     3     0     0  1.698563156E+01  3.054004981E+00 -2.003915863E+01  2.644629472E+01  5.109987554E-04  0.00000E+00  9.000E+00
      21     1     1     2   511   501  2.193078144E+00  3.145019053E+00 -7.262706187E+01  7.272819846E+01  1.026559153E-06  0.00000E+00  9.000E+00
</event>
<event>
      6  10011  1.00000E+00  7.82468E+00 -1.00000E+00  2.08870E-01
      -2    -1     0     0     0   511  0.000000000E+00  0.000000000E+00  1.013120172E+01  1.013120172E+01  0.000000000E+00  0.00000E+00  9.000E+00
       2    -1     0     0   501     0  0.000000000E+00  0.000000000E+00 -4.868070981E+02  4.868070981E+02  0.000000000E+00  0.00000E+00  9.000E+00
      23     2     1     2     0     0  6.394963968E+00  4.508877859E+00 -4.797913083E+02  4.885162255E+02  9.158153479E+01  0.00000E+00  9.000E+00
      11     1     3     3     0     0  1.942341389E+01 -3.450468301E+01 -3.531498629E+02  3.553627271E+02  5.110158048E-04  0.00000E+00  9.000E+00
     -11     1     3     3     0     0 -1.302844992E+01  3.901356087E+01 -1.266414454E+02  1.331534984E+02  5.109862908E-04  0.00000E+00  9.000E+00
      21     1     1     2   501   511 -6.394963968E+00 -4.508877859E+00  3.115411955E+00  8.422074290E+00  5.133809571E-07  0.00000E+00  9.000E+00
</event>
<event>
      6  10011  1.00000E+00  1.59055E+00 -1.00000E+00  4.16636E-01
       2    -1     0     0   501     0  0.000000000E+00  0.000000000E+00  5.507769876E+02  5.507769876E+02  0.000000000E+00  0.00000E+00  9.000E+00
      21    -1     0     0   511   501  0.000000000E+00  0.000000000E+00 -3.396086993E-01  3.396086993E-01  0.000000000E+00  0.00000E+00  9.000E+00
      23     2     1     2     0     0  1.190511381E+00  1.054769943E+00  5.457035470E+02  5.461226979E+02  2.133330900E+01  0.00000E+00  9.000E+00
      11     1     3     3     0     0  9.853255212E+00  2.290639480E+00  1.597532317E+02  1.600731980E+02  5.109942576E-04  0.00000E+00  9.000E+00
     -11     1     3     3     0     0 -8.662743831E+00 -1.235869537E+00  3.859503153E+02  3.860494999E+02  5.110226389E-04  0.00000E+00  9.000E+00
       2     1     1     2   511     0 -1.190511381E+00 -1.054769943E+00  4.733831919E+00  4.993898439E+00  2.608700864E-07  0.00000E+00  9.000E+00
</event>
<event>
      5  10011  1.00000E+00  8.94427E-01 -1.00000E+00  7.44888E-01
       2    -1     0     0   501     0  0.000000000E+00  0.000000000E+00  2.141843776E+03  2.141843776E+03  0.000000000E+00  0.00000E+00  9.000E+00
      -2    -1     0     0     0   501  0.000000000E+00  0.000000000E+00 -3.430944419E-02  3.430944419E-02  0.000000000E+00  0.00000E+00  9.000E+00
      23     2     1     2     0     0  0.000000000E+00  0.000000000E+00  2.141809467E+03  2.141878086E+03  1.714473325E+01  0.00000E+00  9.000E+00
      11     1     3     3     0     0  6.233527039E+00  3.257395634E+00  1.683159658E+03  1.683174353E+03  5.105133615E-04  0.00000E+00  9.000E+00
     -11     1     3     3     0     0 -6.233527039E+00 -3.257395634E+00  4.586498089E+02  4.587037330E+02  5.108984998E-04  0.00000E+00  9.000E+00
</event>
<event>
      6  10011  1.00000E+00  4.86158E+00 -1.00000E+00  2.44891E-01
       2    -1     0     0   501     0  0.000000000E+00  0.000000000E+00  3.007665736E+00  3.007665736E+00  0.000000000E+00  0.00000E+00  9.000E+00
      -2    -1     0     0     0   511  0.000000000E+00  0.000000000E+00 -7.524520052E+01  7.524520052E+01  0.000000000E+00  0.00000E+00  9.000E+00
      23     2     1     2     0     0  1.740076091E+00 -4.539503535E+00 -2.233599529E+01  2.811507013E+01  1.636843075E+01  0.00000E+00  9.000E+00
      11     1     3     3     0     0 -6.615601479E+00  1.369481124E+00 -7.530219952E+00  1.011661377E+01  5.109989575E-04  0.00000E+00  9.000E+00
     -11     1     3     3     0     0  8.355677569E+00 -5.908984659E+00 -1.480577534E+01  1.799845635E+01  5.109990271E-04  0.00000E+00  9.000E+00
      21     1     1     2   501   511 -1.740076091E+00  4.539503535E+00 -4.990153950E+01  5.013779613E+01  6.899736466E-07  0.00000E+00  9.000E+00
</event>
<event>
      6  10011  1.00000E+00  1.82061E+01 -1.00000E+00  1.69765E-01
      21    -1     0     0   511   501  0.000000000E+00  0.000000000E+00  3.223792433E+01  3.223792433E+01  0.000000000E+00  0.00000E+00  9.000E+00
       2    -1     0     0   501     0  0.000000000E+00  0.000000000E+00 -4.377307663E+02  4.377307663E+02  0.000000000E+00  0.00000E+00  9.000E+00
      23     2     1     2     0     0 -1.661299053E+01 -7.447857814E+00 -4.297236634E+02  4.396603627E+02  9.114464074E+01  0.00000E+00  9.000E+00
      11     1     3     3     0     0  9.842258413E+00 -4.552516500E+01 -2.136650699E+02  2.186828132E+02  5.109884713E-04  0.00000E+00  9.000E+00
     -11     1     3     3     0     0 -2.645524894E+01  3.807730718E+01 -2.160585935E+02  2.209775495E+02  5.110062454E-04  0.00000E+00  9.000E+00
       2     1     1     2   511     0  1.661299053E+01  7.447857814E+00  2.423082143E+01  3.030832802E+01  1.320246245E-07  0.00000E+00  9.000E+00
</event>
<event>
      6  10011  1.00000E+00  1.11001E+01 -1.00000E+00  1.90604E-01
       2    -1     0     0   501     0  0.000000000E+00  0.000000000E+00  3.096784724E+02  3.096784724E+02  0.000000000E+00  0.00000E+00  9.000E+00
      21    -1     0     0   511   501  0.000000000E+00  0.000000000E+00 -1.140962379E+00  1.140962379E+00  0.000000000E+00  0.00000E+00  9.000E+00
      23     2     1     2     0     0 -8.393794726E+00 -7.263434607E+00  2.615564789E+02  2.625449015E+02  1.987008831E+01  0.00000E+00  9.000E+00
      11     1     3     3     0     0 -1.065869662E+01  1.530844076E+00  7.517241994E+01  7.593973938E+01  5.109959857E-04  0.00000E+00  9.000E+00
     -11     1     3     3     0     0  2.264901896E+00 -8.794278684E+00  1.863840589E+02  1.866051621E+02  5.109920276E-04  0.00000E+00  9.000E+00
       2     1     1     2   511     0  8.393794726E+00  7.263434607E+00  4.698103113E+01  4.827453323E+01  8.255028119E-07  0.00000E+00  9.000E+00
</event>
<event>
      6  10011  1.00000E+00  8.71694E+00 -1.00000E+00  2.02851E-01
      -2    -1     0     0     0   501  0.000000000E+00  0.000000000E+00  2.125394123E+00  2.125394123E+00  0.000000000E+00  0.00000E+00  9.000E+00
       2    -1     0     0   511     0  0.000000000E+00  0.000000000E+00 -1.326900444E+03  1.326900444E+03  0.000000000E+00  0.00000E+00  9.000E+00
      23     2     1     2     0     0  8.105503408E+00  3.207153084E+00 -1.024217567E+03  1.028341975E+03  9.159480345E+01  0.00000E+00  9.000E+00
      11     1     3     3     0     0 -8.864275390E+00 -1.750642398E+01 -9.346832996E+02  9.348892559E+02  5.107602663E-04  0.00000E+00  9.000E+00
     -11     1     3     3     0     0  1.696977880E+01  2.071357706E+01 -8.953426694E+01  9.345271866E+01  5.110042088E-04  0.00000E+00  9.000E+00
      21     1     1     2   511   501 -8.105503408E+00 -3.207153084E+00 -3.005574831E+02  3.006838633E+02  1.479348379E-06  0.00000E+00  9.000E+00
</event>
<event>
      6  10011  1.00000E+00  2.80700E+00 -1.00000E+00  3.05767E-01
       2    -1     0     0   511     0  0.000000000E+00  0.000000000E+00  1.536271805E+02  1.536271805E+02  0.000000000E+00  0.00000E+00  9.000E+00
      -2    -1     0     0     0   501  0.000000000E+00  0.000000000E+00 -2.075670593E+00  2.075670593E+00  0.000000000E+00  0.00000E+00  9.000E+00
      23     2     1     2     0     0 -1.672002769E+00  2.254700817E+00  9.762189487E+01  1.017002340E+02  2.837294450E+01  0.00000E+00  9.000E+00
      11     1     3     3     0     0  7.112565885E+00  4.085232001E-01  5.142953816E+00  8.786663695E+00  5.109990007E-04  0.00000E+00  9.000E+00
     -11     1     3     3     0     0 -8.784568653E+00  1.846177617E+00  9.247894105E+01  9.291357035E+01  5.109997657E-04  0.00000E+00  9.000E+00
      21     1     1     2   511   501  1.672002769E+00 -2.254700817E+00  5.392961500E+01  5.400261701E+01  8.637533633E-07  0.00000E+00  9.000E+00
</event>
<event>
      6  10011  1.00000E+00  1.19105E+01 -1.00000E+00  1.87317E-01
       1    -1     0     0   511     0  0.000000000E+00  0.000000000E+00  3.332492153E+02  3.332492153E+02  0.000000000E+00  0.00000E+00  9.000E+00
      -1    -1     0     0     0   501  0.000000000E+00  0.000000000E+00 -1.254869130E+00  1.254869130E+00  0.000000000E+00  0.00000E+00  9.000E+00
      23     2     1     2     0     0  3.515869091E+00 -1.137972860E+01  1.005745962E+02  1.027780388E+02  1.749903698E+01  0.00000E+00  9.000E+00
      11     1     3     3     0     0  1.610919558E+00 -3.730586867E+00  3.439940903E+00  5.324052392E+00  5.109989858E-04  0.00000E+00  9.000E+00
     -11     1     3     3     0     0  1.904949533E+00 -7.649141732E+00  9.713465533E+01  9.745398641E+01  5.109960487E-04  0.00000E+00  9.000E+00
      21     1     1     2   511   501 -3.515869091E+00  1.137972860E+01  2.314197499E+02  2.317260456E+02  1.335463315E-06  0.00000E+00  9.000E+00
</event>
<event>
      6  10011  1.00000E+00  3.27918E+00 -1.00000E+00  2.85486E-01
      -2    -1     0     0     0   511  0.000000000E+00  0.000000000E+00  1.388930115E+02  1.388930115E+02  0.000000000E+00  0.00000E+00  9.000E+00
       2    -1     0     0   501     0  0.000000000E+00  0.000000000E+00 -1.769333716E+01  1.769333716E+01  0.000000000E+00  0.00000E+00  9.000E+00
      23     2     1     2     0     0 -2.274487237E+00 -2.362139931E+00  1.011932794E+02  1.363129958E+02  9.127102516E+01  0.00000E+00  9.000E+00
      11     1     3     3     0     0 -3.244833932E+00  4.208399592E+01  2.791885230E+01  5.060685698E+01  5.109998174E-04  0.00000E+00  9.000E+00
     -11     1     3     3     0     0  9.703466948E-01 -4.444613585E+01  7.327442712E+01  8.570613884E+01  5.109992373E-04  0.00000E+00  9.000E+00
      21     1     1     2   501   511  2.274487237E+00  2.362139931E+00  2.000639494E+01  2.027335284E+01  3.368041531E-07  0.00000E+00  9.000E+00
</event>
<event>
      6  10011  1.00000E+00  1.17619E+00 -1.00000E+00  5.47603E-01
      -2    -1     0     0     0   511  0.000000000E+00  0.000000000E+00  2.184848773E+00  2.184848773E+00  0.000000000E+00  0.00000E+00  9.000E+00
       2    -1     0     0   501     0  0.000000000E+00  0.000000000E+00 -7.447515740E+02  7.447515740E+02  0.000000000E+00  0.00000E+00  9.000E+00
      23     2     1     2     0     0  1.162295086E+00 -1.802567099E-01 -7.432096631E+02  7.455959783E+02  5.959342389E+01  0.00000E+00  9.000E+00
      11     1     3     3     0     0  5.753111298E+00 -9.306841525E+00 -2.471431853E+01  2.702800639E+01  5.109951590E-04  0.00000E+00  9.000E+00
     -11     1     3     3     0     0 -4.590816212E+00  9.126584816E+00 -7.184953445E+02  7.185679719E+02  5.110755977E-04  0.00000E+00  9.000E+00
      21     1     1     2   501   511 -1.162295086E+00  1.802567099E-01  6.429378272E-01  1.340444478E+00  2.080299130E-07  0.00000E+00  9.000E+00
</event>
<event>
      6  10011  1.00000E+00  9.08457E-01 -1.00000E+00  7.35777E-01
       2    -1     0     0   511     0  0.000000000E+00  0.000000000E+00  9.963729254E+00  9.963729254E+00  0.000000000E+00  0.00000E+00  9.000E+00
      -2    -1     0     0     0   501  0.000000000E+00  0.000000000E+00 -1.062192689E+01  1.062192689E+01  0.000000000E+00  0.00000E+00  9.000E+00
      23     2     1     2     0     0  6.761413303E-01  6.067342808E-01 -7.089289180E-01  1.967578403E+01  1.964201119E+01  0.00000E+00  9.000E+00
      11     1     3     3     0     0  7.677170266E+00 -5.950100754E+00 -2.225287363E+00  9.964664891E+00  5.109988954E-04  0.00000E+00  9.000E+00
     -11     1     3     3     0     0 -7.001028936E+00  6.556835035E+00  1.516358445E+00  9.711119144E+00  5.109989106E-04  0.00000E+00  9.000E+00
      21     1     1     2   511   501 -6.761413303E-01 -6.067342808E-01  5.073128564E-02  9.098721061E-01  2.408594747E-09  0.00000E+00  9.000E+00
</event>
<event>
      5  10011  1.00000E+00  8.94427E-01 -1.00000E+00  7.42700E-01
       2    -1     0     0   501     0  0.000000000E+00  0.000000000E+00  5.634773028E+02  5.634773028E+02  0.000000000E+00  0.00000E+00  9.000E+00
      -2    -1     0     0     0   501  0.000000000E+00  0.000000000E+00 -2.637486949E-01  2.637486949E-01  0.000000000E+00  0.00000E+00  9.000E+00
      23     2     1     2     0     0  0.000000000E+00  0.000000000E+00  5.632135541E+02  5.637410515E+02  2.438166551E+01  0.00000E+00  9.000E+00
      11     1     3     3     0     0  6.608241717E+00  1.266403908E+00  4.655776332E+01  4.704144941E+01  5.109982464E-04  0.00000E+00  9.000E+00
     -11     1     3     3     0     0 -6.608241717E+00 -1.266403908E+00  5.166557908E+02  5.166996021E+02  5.109652247E-04  0.00000E+00  9.000E+00
</event>
<event>
      6  10011  1.00000E+00  1.21738E+01 -1.00000E+00  1.86321E-01
      21    -1     0     0   501   511  0.000000000E+00  0.000000000E+00  8.535513643E+01  8.535513643E+01  0.000000000E+00  0.00000E+00  9.000E+00
      -2    -1     0     0     0   501  0.000000000E+00  0.000000000E+00 -4.338425356E+01  4.338425356E+01  0.000000000E+00  0.00000E+00  9.000E+00
      23     2     1     2     0     0  1.212408310E+01  1.099447444E+00  1.241692828E+01  9.677631116E+01  9.520121910E+01  0.00000E+00  9.000E+00
      11     1     3     3     0     0 -1.994174162E+01  1.413745170E+01 -3.212351479E+01  4.036658027E+01  5.109993748E-04  0.00000E+00  9.000E+00
     -11     1     3     3     0     0  3.206582472E+01 -1.303800426E+01  4.454044307E+01  5.640973090E+01  5.110002499E-04  0.00000E+00  9.000E+00
      -2     1     1     2     0   511 -1.212408310E+01 -1.099447444E+00  2.955395459E+01  3.196307882E+01  2.776778512E-07  0.00000E+00  9.000E+00
</event>
<event>
      5  10011  1.00000E+00  8.94427E-01 -1.00000E+00  2.44108E-01
      -5    -1     0     0     0   501  0.000000000E+00  0.000000000E+00  1.636183048E+02  1.636183048E+02  0.000000000E+00  0.00000E+00  9.000E+00
       5    -1     0     0   501     0  0.000000000E+00  0.000000000E+00 -4.909298600E-01  4.909298600E-01  0.000000000E+00  0.00000E+00  9.000E+00
      23     2     1     2     0     0  0.000000000E+00  0.000000000E+00  1.631273750E+02  1.641092347E+02  1.792485553E+01  0.00000E+00  9.000E+00
      11     1     3     3     0     0  7.258173579E+00  1.190493262E-01  1.296882348E+02  1.298912372E+02  5.110001342E-04  0.00000E+00  9.000E+00
     -11     1     3     3     0     0 -7.258173579E+00 -1.190493262E-01  3.343914019E+01  3.421799750E+01  5.110001030E-04  0.00000E+00  9.000E+00
</event>
<event>
      6  10011  1.00000E+00  3.49778E+00 -1.00000E+00  2.77880E-01
       2    -1     0     0   501     0  0.000000000E+00  0.000000000E+00  7.457580822E+01  7.457580822E+01  0.000000000E+00  0.00000E+00  9.000E+00
      -2    -1     0     0     0   511  0.000000000E+00  0.000000000E+00 -3.205013392E+01  3.205013392E+01  0.000000000E+00  0.00000E+00  9.000E+00
      23     2     1     2     0     0 -3.292700861E+00 -1.180071331E+00  4.381381899E+01  1.028985082E+02  9.303879728E+01  0.00000E+00  9.000E+00
      11     1     3     3     0     0  3.274077817E+01  4.563179115E+00  5.548753881E+01  6.458829710E+01  5.109991298E-04  0.00000E+00  9.000E+00
     -11     1     3     3     0     0 -3.603347904E+01 -5.743250446E+00 -1.167371982E+01  3.831021106E+01  5.109985813E-04  0.00000E+00  9.000E+00
      21     1     1     2   501   511  3.292700861E+00  1.180071331E+00 -1.288144687E+00  3.727433976E+00  5.064160166E-08  0.00000E+00  9.000E+00
</event>
<event>
      6  10011  1.00000E+00  7.67112E+00 -1.00000E+00  2.10016E-01
      -1    -1     0     0     0   511  0.000000000E+00  0.000000000E+00  9.443365245E+00  9.443365245E+00  0.000000000E+00  0.00000E+00  9.000E+00
       1    -1     0     0   501     0  0.000000000E+00  0.000000000E+00 -2.538408992E+02  2.538408992E+02  0.000000000E+00  0.00000E+00  9.000E+00
      23     2     1     2     0     0 -5.221300991E+00  5.619967558E+00 -2.480035657E+02  2.548078570E+02  5.798645811E+01  0.00000E+00  9.000E+00
      11     1     3     3     0     0 -1.680463587E+01  2.485499897E+01 -8.246233109E+01  8.775079948E+01  5.109994133E-04  0.00000E+00  9.000E+00
     -11     1     3     3     0     0  1.158333487E+01 -1.923503141E+01 -1.655412347E+02  1.670570575E+02  5.109991522E-04  0.00000E+00  9.000E+00
      21     1     1     2   501   511  5.221300991E+00 -5.619967558E+00  3.606031761E+00  8.476407520E+00  2.914905759E-07  0.00000E+00  9.000E+00
</event>
<event>
      6  10011  1.00000E+00  9.34312E+00 -1.00000E+00  1.99171E-01
       2    -1     0     0   501     0  0.000000000E+00  0.000000000E+00  6.000254065E+02  6.000254065E+02  0.000000000E+00  0.00000E+00  9.000E+00
      -2    -1     0     0     0   511  0.000000000E+00  0.000000000E+00 -4.121545549E+00  4.121545549E+00  0.000000000E+00  0.00000E+00  9.000E+00
      23     2     1     2     0     0 -9.259861276E+00  1.244544238E+00  5.609234570E+02  5.679402871E+02  8.850848126E+01  0.00000E+00  9.000E+00
      11     1     3     3     0     0  2.320414047E+01  3.132837701E+01  3.651908031E+02  3.672658737E+02  5.110108479E-04  0.00000E+00  9.000E+00
     -11     1     3     3     0     0 -3.246400175E+01 -3.008383277E+01  1.957326539E+02  2.006744134E+02  5.110162220E-04  0.00000E+00  9.000E+00
      21     1     1     2   501   511  9.259861276E+00 -1.244544238E+00  3.498040398E+01  3.620666491E+01  3.960738736E-07  0.00000E+00  9.000E+00
</event>
<event>
      6  10011  1.00000E+00  1.24925E+01 -1.00000E+00  1.85158E-01
      -1    -1     0     0     0   501  0.000000000E+00  0.000000000E+00  3.674532956E+01  3.674532956E+01  0.000000000E+00  0.00000E+00  9.000E+00
       1    -1     0     0   511     0  0.000000000E+00  0.000000000E+00 -3.863472901E+02  3.863472901E+02  0.000000000E+00  0.00000E+00  9.000E+00
      23     2     1     2     0     0 -1.184301867E+01 -3.975621384E+00 -2.109207050E+01  9.434528428E+01  9.110485482E+01  0.00000E+00  9.000E+00
      11     1     3     3     0     0 -5.059531974E+01 -3.615263364E+00 -2.266877602E+01  5.555924689E+01  5.109986552E-04  0.00000E+00  9.000E+00
     -11     1     3     3     0     0  3.875230107E+01 -3.603580200E-01  1.576705524E+00  3.878603739E+01  5.109989194E-04  0.00000E+00  9.000E+00
      21     1     1     2   511   501  1.184301867E+01  3.975621384E+00 -3.285098900E+02  3.287473354E+02  2.486306860E-06  0.00000E+00  9.000E+00
</event>
<event>
      6  10011  1.00000E+00  1.09079E+01 -1.00000E+00  1.91438E-01
      21    -1     0     0   501   511  0.000000000E+00  0.000000000E+00  1.372742946E+02  1.372742946E+02  0.000000000E+00  0.00000E+00  9.000E+00
      -2    -1     0     0     0   501  0.000000000E+00  0.000000000E+00 -2.787209478E+00  2.787209478E+00  0.000000000E+00  0.00000E+00  9.000E+00
      23     2     1     2     0     0 -1.039960686E+01  3.290841115E+00  5.761195809E+01  6.241637149E+01  2.139355644E+01  0.00000E+00  9.000E+00
      11     1     3     3     0     0  1.882635265E-01  1.623281985E+00 -1.573283684E+00  2.268415608E+00  5.109989166E-04  0.00000E+00  9.000E+00
     -11     1     3     3     0     0 -1.058787039E+01  1.667559131E+00  5.918524177E+01  6.014795588E+01  5.109992417E-04  0.00000E+00  9.000E+00
      -2     1     1     2     0   511  1.039960686E+01 -3.290841115E+00  7.687512705E+01  7.764513261E+01  3.257872330E-07  0.00000E+00  9.000E+00
</event>
<event>
      6  10011  1.00000E+00  1.18160E+00 -1.00000E+00  5.45174E-01
      21    -1     0     0   501   511  0.000000000E+00  0.000000000E+00  3.446294402E+02  3.446294402E+02  0.000000000E+00  0.00000E+00  9.000E+00
      -2    -1     0     0     0   501  0.000000000E+00  0.000000000E+00 -3.433021973E-01  3.433021973E-01  0.000000000E+00  0.00000E+00  9.000E+00
      23     2     1     2     0     0 -1.060071037E+00 -5.219501244E-01  3.263125456E+02  3.269603520E+02  2.053772644E+01  0.00000E+00  9.000E+00
      11     1     3     3     0     0  2.570187668E+00  7.566225554E+00  6.384542759E+01  6.434354869E+01  5.110004888E-04  0.00000E+00  9.000E+00
     -11     1     3     3     0     0 -3.630258706E+00 -8.088175679E+00  2.624671180E+02  2.626168033E+02  5.109783934E-04  0.00000E+00  9.000E+00
      -2     1     1     2     0   511  1.060071037E+00  5.219501244E-01  1.797359239E+01  1.801239034E+01  1.710391087E-07  0.00000E+00  9.000E+00
</event>
<event>
      6  10011  1.00000E+00  7.45687E+00 -1.00000E+00  2.11676E-01
      -2    -1     0     0     0   501  0.000000000E+00  0.000000000E+00  4.726986755E+01  4.726986755E+01  0.000000000E+00  0.00000E+00  9.000E+00
       2    -1     0     0   511     0  0.000000000E+00  0.000000000E+00 -8.513206505E+00  8.513206505E+00  0.000000000E+00  0.00000E+00  9.000E+00
      23     2     1     2     0     0  6.448209010E-01 -7.428933067E+00  3.577521530E+01  4.775226717E+01  3.073773169E+01  0.00000E+00  9.000E+00
      11     1     3     3     0     0  6.822656857E+00 -8.957676987E-01  3.789461028E+01  3.851431598E+01  5.109984277E-04  0.00000E+00  9.000E+00
     -11     1     3     3     0     0 -6.177835956E+00 -6.533165369E+00 -2.119394987E+00  9.237951191E+00  5.109987014E-04  0.00000E+00  9.000E+00
      21     1     1     2   511   501 -6.448209010E-01  7.428933067E+00  2.981445747E+00  8.030806887E+00  1.044992071E-07  0.00000E+00  9.000E+00
</event>
<event>
      6  10011  1.00000E+00  1.15889E+01 -1.00000E+00  1.88580E-01
      -3    -1     0     0     0   501  0.000000000E+00  0.000000000E+00  6.569052944E+01  6.569052944E+01  0.000000000E+00  0.00000E+00  9.000E+00
       3    -1     0     0   511     0  0.000000000E+00  0.000000000E+00 -5.221903685E+01  5.221903685E+01  0.000000000E+00  0.00000E+00  9.000E+00
      23     2     1     2     0     0 -9.064576238E+00 -7.220524581E+00  2.984789512E+01  9.784743585E+01  9.246037715E+01  0.00000E+00  9.000E+00
      11     1     3     3     0     0 -5.006427769E+00  4.236068387E+01  7.493933957E+00  4.330878552E+01  5.109984576E-04  0.00000E+00  9.000E+00
     -11     1     3     3     0     0 -4.058148470E+00 -4.958120845E+01  2.235396116E+01  5.453865033E+01  5.109997436E-04  0.00000E+00  9.000E+00
      21     1     1     2   511   501  9.064576238E+00  7.220524581E+00 -1.637640253E+01  2.006213043E+01  3.108776516E-07  0.00000E+00  9.000E+00
</event>
<event>
      6  10011  1.00000E+00  5.54192E+00 -1.00000E+00  2.30883E-01
      -1    -1     0     0     0   511  0.000000000E+00  0.000000000E+00  1.681112852E+02  1.681112852E+02  0.000000000E+00  0.00000E+00  9.000E+00
       1    -1     0     0   501     0  0.000000000E+00  0.000000000E+00 -1.516321758E+01  1.516321758E+01  0.000000000E+00  0.00000E+00  9.000E+00
      23     2     1     2     0     0 -3.338689638E+00 -4.423349691E+00  1.178237015E+02  1.477156225E+02  8.892000690E+01  0.00000E+00  9.000E+00
      11     1     3     3     0     0  4.162724143E+00  1.664202500E+01 -8.697477651E+00  1.923360044E+01  5.109982082E-04  0.00000E+00  9.000E+00
     -11     1     3     3     0     0 -7.501413780E+00 -2.106537469E+01  1.265211791E+02  1.284820221E+02  5.109945539E-04  0.00000E+00  9.000E+00
      21     1     1     2   501   511  3.338689638E+00  4.423349691E+00  3.512436610E+01  3.555888026E+01  4.918511940E-07  0.00000E+00  9.000E+00
</event>
<event>
      6  10011  1.00000E+00  2.33047E+00 -1.00000E+00  3.34497E-01
       3    -1     0     0   501     0  0.000000000E+00  0.000000000E+00  1.454087745E+01  1.454087745E+01  0.000000000E+00  0.00000E+00  9.000E+00
      -3    -1     0     0     0   511  0.000000000E+00  0.000000000E+00 -1.390727565E+02  1.390727565E+02  0.000000000E+00  0.00000E+00  9.000E+00
      23     2     1     2     0     0 -2.146456828E+00  9.076398822E-01 -1.192468516E+02  1.478375970E+02  8.735394895E+01  0.00000E+00  9.000E+00
      11     1     3     3     0     0 -3.483504838E+01  2.723425129E+01 -7.331708333E+01  8.561880487E+01  5.110005657E-04  0.00000E+00  9.000E+00
     -11     1     3     3     0     0  3.268859156E+01 -2.632661141E+01 -4.592976825E+01  6.221879216E+01  5.109996969E-04  0.00000E+00  9.000E+00
      21     1     1     2   501   511  2.146456828E+00 -9.076398822E-01 -5.285027488E+00  5.776036930E+00  4.869668358E-08  0.00000E+00  9.000E+00
</event>
<event>
      6  10011  1.00000E+00  4.42501E+00 -1.00000E+00  2.53448E-01
      -2    -1     0     0     0   501  0.000000000E+00  0.000000000E+00  4.287457924E+01  4.287457924E+01  0.000000000E+00  0.00000E+00  9.000E+00
      21    -1     0     0   501   511  0.000000000E+00  0.000000000E+00 -3.678258982E+01  3.678258982E+01  0.000000000E+00  0.00000E+00  9.000E+00
      23     2     1     2     0     0  1.855772929E+00  4.017068434E+00  3.623512061E+01  4.919097320E+01  3.297252108E+01  0.00000E+00  9.000E+00
      11     1     3     3     0     0  1.598420398E+01  4.511690097E+00  2.872984730E+01  3.318515106E+01  5.109984013E-04  0.00000E+00  9.000E+00
     -11     1     3     3     0     0 -1.412843105E+01 -4.946216637E-01  7.505273309E+00  1.600582214E+01  5.109989595E-04  0.00000E+00  9.000E+00
      -2     1     1     2     0   511 -1.855772929E+00 -4.017068434E+00 -3.014313119E+01  3.046619586E+01  2.304868147E-07  0.00000E+00  9.000E+00
</event>
<event>
      6  10011  1.00000E+00  2.99246E+01 -1.00000E+00  1.53081E-01
       2    -1     0     0   511     0  0.000000000E+00  0.000000000E+00  8.510306975E+02  8.510306975E+02  0.000000000E+00  0.00000E+00  9.000E+00
      -2    -1     0     0     0   501  0.000000000E+00  0.000000000E+00 -5.429317306E+00  5.429317306E+00  0.000000000E+00  0.00000E+00  9.000E+00
      23     2     1     2     0     0  2.464190903E+01 -1.697821077E+01  4.877290367E+02  4.973387295E+02  9.257815778E+01  0.00000E+00  9.000E+00
      11     1     3     3     0     0 -1.160822034E+01 -1.299680029E+01  1.439724942E+01  2.260416750E+01  5.110012156E-04  0.00000E+00  9.000E+00
     -11     1     3     3     0     0  3.625012937E+01 -3.981410483E+00  4.733317872E+02  4.747345620E+02  5.110251277E-04  0.00000E+00  9.000E+00
      21     1     1     2   511   501 -2.464190903E+01  1.697821077E+01  3.578723435E+02  3.591212853E+02  4.249940746E-06  0.00000E+00  9.000E+00
</event>
<event>
      6  10011  1.00000E+00  6.62299E+00 -1.00000E+00  2.18935E-01
      21    -1     0     0   511   501  0.000000000E+00  0.000000000E+00  1.925585684E+00  1.925585684E+00  0.000000000E+00  0.00000E+00  9.000E+00
       4    -1     0     0   501     0  0.000000000E+00  0.000000000E+00 -2.849717215E+02  2.849717215E+02  0.000000000E+00  0.00000E+00  9.000E+00
      23     2     1     2     0     0  6.553448467E+00  9.572610472E-01 -2.779156113E+02  2.785195797E+02  1.709401233E+01  0.00000E+00  9.000E+00
      11     1     3     3     0     0  7.310783437E+00  5.225759577E+00 -2.571159172E+02  2.572729115E+02  5.110247871E-04  0.00000E+00  9.000E+00
     -11     1     3     3     0     0 -7.573349700E-01 -4.268498530E+00 -2.079969406E+01  2.124666819E+01  5.109976335E-04  0.00000E+00  9.000E+00
       4     1     1     2   511     0 -6.553448467E+00 -9.572610472E-01 -5.130524542E+00  8.377727472E+00  3.700059144E-07  0.00000E+00  9.000E+00
</event>
<event>
      6  10011  1.00000E+00  7.54045E+00 -1.00000E+00  2.11019E-01
       4    -1     0     0   501     0  0.000000000E+00  0.000000000E+00  5.970074245E+02  5.970074245E+02  0.000000000E+00  0.00000E+00  9.000E+00
      21    -1     0     0   511   501  0.000000000E+00  0.000000000E+00 -4.151560916E+00  4.151560916E+00  0.000000000E+00  0.00000E+00  9.000E+00
      23     2     1     2     0     0 -4.049929295E+00 -6.360544710E+00  5.633895032E+02  5.707431203E+02  9.101163992E+01  0.00000E+00  9.000E+00
      11     1     3     3     0     0  1.625531484E+01  2.246528279E+01  4.715975137E+02  4.724120438E+02  5.110047993E-04  0.00000E+00  9.000E+00
     -11     1     3     3     0     0 -2.030524414E+01 -2.882582750E+01  9.179198947E+01  9.833107648E+01  5.110040658E-04  0.00000E+00  9.000E+00
       4     1     1     2   511     0  4.049929295E+00  6.360544710E+00  2.946636035E+01  3.041586508E+01  4.600092483E-07  0.00000E+00  9.000E+00
</event>
<event>
      6  10011  1.00000E+00  4.00514E+00 -1.00000E+00  2.63231E-01
       2    -1     0     0   501     0  0.000000000E+00  0.000000000E+00  1.591248107E+03  1.591248107E+03  0.000000000E+00  0.00000E+00  9.000E+00
      21    -1     0     0   511   501  0.000000000E+00  0.000000000E+00 -7.852843001E-02  7.852843001E-02  0.000000000E+00  0.00000E+00  9.000E+00
      23     2     1     2     0     0 -3.003897996E+00  2.649098191E+00  1.453152005E+03  1.453250962E+03  1.647926769E+01  0.00000E+00  9.000E+00
      11     1     3     3     0     0  3.638720290E+00  2.948162384E+00  1.207217046E+03  1.207226130E+03  5.109467573E-04  0.00000E+00  9.000E+00
     -11     1     3     3     0     0 -6.642618287E+00 -2.990641927E-01  2.459349588E+02  2.460248316E+02  5.109267247E-04  0.00000E+00  9.000E+00
       2     1     1     2   511     0  3.003897996E+00 -2.649098191E+00  1.380175734E+02  1.380756737E+02  4.519745972E-07  0.00000E+00  9.000E+00
</event>
<event>
      6  10011  1.00000E+00  1.44068E+01 -1.00000E+00  1.79002E-01
      -2    -1     0     0     0   511  0.000000000E+00  0.000000000E+00  1.714584452E+01  1.714584452E+01  0.000000000E+00  0.00000E+00  9.000E+00
       2    -1     0     0   501     0  0.000000000E+00  0.000000000E+00 -1.558920140E+02  1.558920140E+02  0.000000000E+00  0.00000E+00  9.000E+00
      23     2     1     2     0     0 -1.201742513E+01 -7.945934401E+00 -1.277736074E+02  1.549283721E+02  8.642424054E+01  0.00000E+00  9.000E+00
      11     1     3     3     0     0 -3.740927807E+00 -1.372782994E+01  9.612924369E+00  1.717137650E+01  5.109982230E-04  0.00000E+00  9.000E+00
     -11     1     3     3     0     0 -8.276497327E+00  5.781895539E+00 -1.373865318E+02  1.377569956E+02  5.109962669E-04  0.00000E+00  9.000E+00
      21     1     1     2   501   511  1.201742513E+01  7.945934401E+00 -1.097256210E+01  1.810948645E+01  9.555932387E-08  0.00000E+00  9.000E+00
</event>
<event>
      6  10011  1.00000E+00  1.08720E+00 -1.00000E+00  5.93180E-01
      21    -1     0     0   501   511  0.000000000E+00  0.000000000E+00  2.512790331E+02  2.512790331E+02  0.000000000E+00  0.00000E+00  9.000E+00
      -1    -1     0     0     0   501  0.000000000E+00  0.000000000E+00 -5.215686288E-01  5.215686288E-01  0.000000000E+00  0.00000E+00  9.000E+00
      23     2     1     2     0     0 -6.515676560E-01  8.703175826E-01  2.357636567E+02  2.367674296E+02  2.175159536E+01  0.00000E+00  9.000E+00
      11     1     3     3     0     0 -8.433797335E-01  1.063491764E+01  8.155418971E+01  8.224900377E+01  5.109985990E-04  0.00000E+00  9.000E+00
     -11     1     3     3     0     0  1.918120775E-01 -9.764600059E+00  1.542094670E+02  1.545184258E+02  5.110098641E-04  0.00000E+00  9.000E+00
      -1     1     1     2     0   511  6.515676560E-01 -8.703175826E-01  1.499380779E+01  1.503317216E+01  1.807437758E-07  0.00000E+00  9.000E+00
</event>
<event>
      6  10011  1.00000E+00  1.54096E+01 -1.00000E+00  1.76241E-01
      -2    -1     0     0     0   501  0.000000000E+00  0.000000000E+00  8.262826911E+02  8.262826911E+02  0.000000000E+00  0.00000E+00  9.000E+00
       2    -1     0     0   511     0  0.000000000E+00  0.000000000E+00 -3.525690735E+00  3.525690735E+00  0.000000000E+00  0.00000E+00  9.000E+00
      23     2     1     2     0     0 -8.395554993E+00  1.292171392E+01  7.604227391E+02  7.655976650E+02  8.751906316E+01  0.00000E+00  9.000E+00
      11     1     3     3     0     0 -2.117591295E+00  1.128955889E+00 -1.959656222E+00  3.098223211E+00  5.109987533E-04  0.00000E+00  9.000E+00
     -11     1     3     3     0     0 -6.277963697E+00  1.179275803E+01  7.623823953E+02  7.624994418E+02  5.109687289E-04  0.00000E+00  9.000E+00
      21     1     1     2   511   501  8.395554993E+00 -1.292171392E+01  6.233426122E+01  6.421071683E+01  1.136500535E-06  0.00000E+00  9.000E+00
</event>
<event>
      6  10011  1.00000E+00  1.30257E+01 -1.00000E+00  1.83308E-01
      21    -1     0     0   501   511  0.000000000E+00  0.000000000E+00  1.029281036E+03  1.029281036E+03  0.000000000E+00  0.00000E+00  9.000E+00
      -1    -1     0     0     0   501  0.000000000E+00  0.000000000E+00 -4.039589033E+00  4.039589033E+00  0.000000000E+00  0.00000E+00  9.000E+00
      23     2     1     2     0     0  2.162472876E+00  1.284493830E+01  5.495228916E+02  5.574237742E+02  9.260770433E+01  0.00000E+00  9.000E+00
      11     1     3     3     0     0  2.270309348E+00 -3.080454772E+01  4.116283549E+02  4.127856308E+02  5.110215960E-04  0.00000E+00  9.000E+00
     -11     1     3     3     0     0 -1.078364718E-01  4.364948602E+01  1.378945367E+02  1.446381433E+02  5.110004436E-04  0.00000E+00  9.000E+00
      -1     1     1     2     0   511 -2.162472876E+00 -1.284493830E+01  4.757185550E+02  4.758968505E+02  6.751919870E-06  0.00000E+00  9.000E+00
</event>
<event>
      6  10011  1.00000E+00  4.24106E+00 -1.00000E+00  2.57519E-01
      21    -1     0     0   511   501  0.000000000E+00  0.000000000E+00  2.892114205E+02  2.892114205E+02  0.000000000E+00  0.00000E+00  9.000E+00
       2    -1     0     0   501     0  0.000000000E+00  0.000000000E+00 -4.235907170E-01  4.235907170E-01  0.000000000E+00  0.00000E+00  9.000E+00
      23     2     1     2     0     0 -4.212461811E+00  4.917125361E-01  2.314024841E+02  2.320931611E+02  1.738215079E+01  0.00000E+00  9.000E+00
      11     1     3     3     0     0  6.110087746E+00  2.068344066E+00  1.286033357E+02  1.287650153E+02  5.110093896E-04  0.00000E+00  9.000E+00
     -11     1     3     3     0     0 -1.032254956E+01 -1.576631529E+00  1.027991484E+02  1.033281458E+02  5.109962843E-04  0.00000E+00  9.000E+00
       2     1     1     2   511     0  4.212461811E+00 -4.917125361E-01  5.738534569E+01  5.754185013E+01  2.250025998E-07  0.00000E+00  9.000E+00
</event>
<event>
      6  10011  1.00000E+00  1.09897E+00 -1.00000E+00  5.86466E-01
      -1    -1     0     0     0   501  0.000000000E+00  0.000000000E+00  2.290073290E+00  2.290073290E+00  0.000000000E+00  0.00000E+00  9.000E+00
       1    -1     0     0   511     0  0.000000000E+00  0.000000000E+00 -5.937068958E+01  5.937068958E+01  0.000000000E+00  0.00000E+00  9.000E+00
      23     2     1     2     0     0 -1.061760274E+00 -2.835312130E-01 -4.432307070E+01  4.885597102E+01  2.052227042E+01  0.00000E+00  9.000E+00
      11     1     3     3     0     0 -1.696721193E+00  1.775993743E+00  1.568181641E+00  2.914139753E+00  5.109989253E-04  0.00000E+00  9.000E+00
     -11     1     3     3     0     0  6.349609191E-01 -2.059524956E+00 -4.589125234E+01  4.594183126E+01  5.109987441E-04  0.00000E+00  9.000E+00
      21     1     1     2   511   501  1.061760274E+00  2.835312130E-01 -1.275754559E+01  1.280479185E+01  1.264954123E-07  0.00000E+00  9.000E+00
</event>
<event>
      6  10011  1.00000E+00  6.51956E+00 -1.00000E+00  2.19938E-01
       2    -1     0     0   511     0  0.000000000E+00  0.000000000E+00  1.222403361E+01  1.222403361E+01  0.000000000E+00  0.00000E+00  9.000E+00
      -2    -1     0     0     0   501  0.000000000E+00  0.000000000E+00 -1.935072712E+02  1.935072712E+02  0.000000000E+00  0.00000E+00  9.000E+00
      23     2     1     2     0     0 -6.238426029E+00 -1.893847519E+00 -1.760152005E+02  1.973493699E+02  8.901077680E+01  0.00000E+00  9.000E+00
      11     1     3     3     0     0 -1.686496618E+01  9.325941103E+00 -1.802888455E+02  1.813159344E+02  5.110026579E-04  0.00000E+00  9.000E+00
     -11     1     3     3     0     0  1.062654015E+01 -1.121978862E+01  4.273645003E+00  1.603343551E+01  5.109989483E-04  0.00000E+00  9.000E+00
      21     1     1     2   511   501  6.238426029E+00  1.893847519E+00 -5.268037135E+00  8.381934920E+00  6.656187916E-08  0.00000E+00  9.000E+00
</event>
<event>
      6  10011  1.00000E+00  8.55626E+00 -1.00000E+00  2.03862E-01
       2    -1     0     0   501     0  0.000000000E+00  0.000000000E+00  2.567897903E+02  2.567897903E+02  0.000000000E+00  0.00000E+00  9.000E+00
      21    -1     0     0   511   501  0.000000000E+00  0.000000000E+00 -8.481170675E-01  8.481170675E-01  0.000000000E+00  0.00000E+00  9.000E+00
      23     2     1     2     0     0  1.369188478E+00 -8.445997804E+00  2.157314963E+02  2.165274721E+02  1.645776831E+01  0.00000E+00  9.000E+00
      11     1     3     3     0     0 -6.557720177E+00  5.206334460E-01  7.480404022E+01  7.509273724E+01  5.109989297E-04  0.00000E+00  9.000E+00
     -11     1     3     3     0     0  7.926908654E+00 -8.966631250E+00  1.409274561E+02  1.414347349E+02  5.109999621E-04  0.00000E+00  9.000E+00
       2     1     1     2   511     0 -1.369188478E+00  8.445997804E+00  4.021017693E+01  4.111043522E+01  3.713350235E-07  0.00000E+00  9.000E+00
</event>
<event>
      6  10011  1.00000E+00  3.75552E+00 -1.00000E+00  2.69981E-01
      -2    -1     0     0     0   501  0.000000000E+00  0.000000000E+00  5.086446958E+00  5.086446958E+00  0.000000000E+00  0.00000E+00  9.000E+00
       2    -1     0     0   511     0  0.000000000E+00  0.000000000E+00 -1.027158907E+02  1.027158907E+02  0.000000000E+00  0.00000E+00  9.000E+00
      23     2     1     2     0     0  3.096594702E-01 -3.742734735E+00 -3.492826668E+01  4.498879169E+01  2.810522393E+01  0.00000E+00  9.000E+00
      11     1     3     3     0     0 -3.730077463E+00  8.424496232E+00 -2.978125321E+01  3.117384573E+01  5.109991205E-04  0.00000E+00  9.000E+00
     -11     1     3     3     0     0  4.039736933E+00 -1.216723097E+01 -5.147013470E+00  1.381494596E+01  5.109989451E-04  0.00000E+00  9.000E+00
      21     1     1     2   511   501 -3.096594702E-01  3.742734735E+00 -6.270117702E+01  6.281354592E+01  2.149076030E-07  0.00000E+00  9.000E+00
</event>
<event>
      6  10011  1.00000E+00  1.23900E+01 -1.00000E+00  1.85527E-01
       2    -1     0     0   501     0  0.000000000E+00  0.000000000E+00  1.738656125E+02  1.738656125E+02  0.000000000E+00  0.00000E+00  9.000E+00
      -2    -1     0     0     0   511  0.000000000E+00  0.000000000E+00 -1.527057713E+01  1.527057713E+01  0.000000000E+00  0.00000E+00  9.000E+00
      23     2     1     2     0     0  8.258664930E+00  9.236162872E+00  1.411279397E+02  1.677209688E+02  8.977591973E+01  0.00000E+00  9.000E+00
      11     1     3     3     0     0  5.881791494E+00 -3.775259976E+01  9.239062483E+01  9.997940696E+01  5.110006435E-04  0.00000E+00  9.000E+00
     -11     1     3     3     0     0  2.376873436E+00  4.698876263E+01  4.873731486E+01  6.774156184E+01  5.109991754E-04  0.00000E+00  9.000E+00
      21     1     1     2   501   511 -8.258664930E+00 -9.236162872E+00  1.746709564E+01  2.141522078E+01  3.494632065E-08  0.00000E+00  9.000E+00
</event>
<event>
      6  10011  1.00000E+00  3.73502E+00 -1.00000E+00  2.70572E-01
      21    -1     0     0   511   501  0.000000000E+00  0.000000000E+00  2.479023386E+00  2.479023386E+00  0.000000000E+00  0.00000E+00  9.000E+00
       2    -1     0     0   501     0  0.000000000E+00  0.000000000E+00 -1.597835649E+03  1.597835649E+03  0.000000000E+00  0.00000E+00  9.000E+00
      23     2     1     2     0     0 -3.335086167E+00  1.681539537E+00 -1.593708386E+03  1.596232140E+03  8.964750435E+01  0.00000E+00  9.000E+00
      11     1     3     3     0     0 -1.180267220E+01 -1.953315515E+01 -1.483786391E+03  1.483961894E+03  5.106126721E-04  0.00000E+00  9.000E+00
     -11     1     3     3     0     0  8.467586029E+00  2.121469469E+01 -1.099219951E+02  1.122702467E+02  5.110340099E-04  0.00000E+00  9.000E+00
       2     1     1     2   511     0  3.335086167E+00 -1.681539537E+00 -1.648239353E+00  4.082532047E+00  3.411463957E-07  0.00000E+00  9.000E+00
</event>
<event>
      6  10011  1.00000E+00  3.53854E+00 -1.00000E+00  2.76559E-01
       1    -1     0     0   511     0  0.000000000E+00  0.000000000E+00  4.844818106E+01  4.844818106E+01  0.000000000E+00  0.00000E+00  9.000E+00
      -1    -1     0     0     0   501  0.000000000E+00  0.000000000E+00 -8.406509288E+01  8.406509288E+01  0.000000000E+00  0.00000E+00  9.000E+00
      23     2     1     2     0     0  2.226626752E-02  3.538469279E+00 -5.260824275E+01  1.151573935E+02  1.023771303E+02  0.00000E+00  9.000E+00
      11     1     3     3     0     0  2.953320571E+01  4.598908366E+00  2.054468153E+01  3.626905206E+01  5.109974771E-04  0.00000E+00  9.000E+00
     -11     1     3     3     0     0 -2.951093944E+01 -1.060439088E+00 -7.315292428E+01  7.888834140E+01  5.110007769E-04  0.00000E+00  9.000E+00
      21     1     1     2   511   501 -2.226626752E-02 -3.538469279E+00  1.699133093E+01  1.735588048E+01  3.356897928E-07  0.00000E+00  9.000E+00
</event>
<event>
      6  10011  1.00000E+00  6.46408E+00 -1.00000E+00  2.20487E-01
      21    -1     0     0   501   511  0.000000000E+00  0.000000000E+00  3.741724705E+00  3.741724705E+00  0.000000000E+00  0.00000E+00  9.000E+00
      -2    -1     0     0     0   501  0.000000000E+00  0.000000000E+00 -7.529908992E+02  7.529908992E+02  0.000000000E+00  0.00000E+00  9.000E+00
      23     2     1     2     0     0  4.340582609E+00  4.789959989E+00 -7.395884651E+02  7.451087829E+02  9.030069909E+01  0.00000E+00  9.000E+00
      11     1     3     3     0     0  2.206067883E+01  3.930033349E+01 -5.335418825E+02  5.354419952E+02  5.109572982E-04  0.00000E+00  9.000E+00
     -11     1     3     3     0     0 -1.772009622E+01 -3.451037350E+01 -2.060465826E+02  2.096667877E+02  5.110421324E-04  0.00000E+00  9.000E+00
      -2     1     1     2     0   511 -4.340582609E+00 -4.789959989E+00 -9.660709425E+00  1.162384105E+01  3.915898574E-07  0.00000E+00  9.000E+00
</event>
<event>
      6  10011  1.00000E+00  3.96137E+00 -1.00000E+00  2.64358E-01
      21    -1     0     0   501   511  0.000000000E+00  0.000000000E+00  4.802555094E+00  4.802555094E+00  0.000000000E+00  0.00000E+00  9.000E+00
      -1    -1     0     0     0   501  0.000000000E+00  0.000000000E+00 -6.344210386E+02  6.344210386E+02  0.000000000E+00  0.00000E+00  9.000E+00
      23     2     1     2     0     0  2.292640266E+00  3.230515087E+00 -6.312613332E+02  6.349350762E+02  6.808808802E+01  0.00000E+00  9.000E+00
      11     1     3     3     0     0 -2.785171212E+01  9.711272050E+00 -1.621067594E+02  1.647684075E+02  5.109445948E-04  0.00000E+00  9.000E+00
     -11     1     3     3     0     0  3.014435239E+01 -6.480756963E+00 -4.691545738E+02  4.701666687E+02  5.110771270E-04  0.00000E+00  9.000E+00
      -1     1     1     2     0   511 -2.292640266E+00 -3.230515087E+00  1.642849722E+00  4.288517497E+00  3.205251874E-07  0.00000E+00  9.000E+00
</event>
<event>
      6  10011  1.00000E+00  8.23978E+00 -1.00000E+00  2.05943E-01
      -3    -1     0     0     0   501  0.000000000E+00  0.000000000E+00  1.067199277E+01  1.067199277E+01  0.000000000E+00  0.00000E+00  9.000E+00
       3    -1     0     0   511     0  0.000000000E+00  0.000000000E+00 -2.684737593E+02  2.684737593E+02  0.000000000E+00  0.00000E+00  9.000E+00
      23     2     1     2     0     0  5.262486331E+00 -6.340362442E+00 -1.931577375E+02  2.139787018E+02  9.170103209E+01  0.00000E+00  9.000E+00
      11     1     3     3     0     0 -1.505487293E+01  3.556618253E+01 -1.292830315E+02  1.349285173E+02  5.110014447E-04  0.00000E+00  9.000E+00
     -11     1     3     3     0     0  2.031735926E+01 -4.190654497E+01 -6.387470600E+01  7.905018447E+01  5.110000351E-04  0.00000E+00  9.000E+00
      21     1     1     2   511   501 -5.262486331E+00  6.340362442E+00 -6.464402904E+01  6.516705033E+01  4.359703910E-07  0.00000E+00  9.000E+00
</event>
<event>
      6  10011  1.00000E+00  1.61545E+00 -1.00000E+00  4.12448E-01
      -2    -1     0     0     0   501  0.000000000E+00  0.000000000E+00  2.059989391E+00  2.059989391E+00  0.000000000E+00  0.00000E+00  9.000E+00
       2    -1     0     0   511     0  0.000000000E+00  0.000000000E+00 -9.949266417E+02  9.949266417E+02  0.000000000E+00  0.00000E+00  9.000E+00
      23     2     1     2     0     0  1.608167290E+00 -1.532121244E-01 -9.738306346E+02  9.778821906E+02  8.890930292E+01  0.00000E+00  9.000E+00
      11     1     3     3     0     0  2.874002925E+01 -3.356297627E+01 -5.881747623E+02  5.898321911E+02  5.109609694E-04  0.00000E+00  9.000E+00
     -11     1     3     3     0     0 -2.713186196E+01  3.340976415E+01 -3.856558722E+02  3.880499994E+02  5.110183285E-04  0.00000E+00  9.000E+00
      21     1     1     2   511   501 -1.608167290E+00  1.532121244E-01 -1.903601779E+01  1.910444056E+01  2.470516359E-07  0.00000E+00  9.000E+00
</event>
<event>
      6  10011  1.00000E+00  6.25185E+00 -1.00000E+00  2.22657E-01
      21    -1     0     0   501   511  0.000000000E+00  0.000000000E+00  1.143617417E+01  1.143617417E+01  0.000000000E+00  0.00000E+00  9.000E+00
      -4    -1     0     0     0   501  0.000000000E+00  0.000000000E+00 -1.725266728E+01  1.725266728E+01  0.000000000E+00  0.00000E+00  9.000E+00
      23     2     1     2     0     0 -6.151108714E+00  1.117783278E+00 -6.566317634E+00  2.239219038E+01  2.047457167E+01  0.00000E+00  9.000E+00
      11     1     3     3     0     0  1.264964078E-02 -7.739439380E+00  2.671218488E+00  8.187459337E+00  5.109989237E-04  0.00000E+00  9.000E+00
     -11     1     3     3     0     0 -6.163758354E+00  8.857222658E+00 -9.237536122E+00  1.420473105E+01  5.109988956E-04  0.00000E+00  9.000E+00
      -4     1     1     2     0   511  6.151108714E+00 -1.117783278E+00  7.498245277E-01  6.296651069E+00  3.047058467E-08  0.00000E+00  9.000E+00
</event>
<event>
      6  10011  1.00000E+00  2.48741E+01 -1.00000E+00  1.58877E-01
       1    -1     0     0   511     0  0.000000000E+00  0.000000000E+00  2.220886124E+02  2.220886124E+02  0.000000000E+00  0.00000E+00  9.000E+00
      -1    -1     0     0     0   501  0.000000000E+00  0.000000000E+00 -1.702829278E+01  1.702829278E+01  0.000000000E+00  0.00000E+00  9.000E+00
      23     2     1     2     0     0  1.066078002E+01 -2.247367814E+01  1.370233950E+02  1.666756079E+02  9.157854036E+01  0.00000E+00  9.000E+00
      11     1     3     3     0     0  3.396306815E+01 -4.848429728E+01  7.559772990E+01  9.601684148E+01  5.110009954E-04  0.00000E+00  9.000E+00
     -11     1     3     3     0     0 -2.330228813E+01  2.601061914E+01  6.142566515E+01  7.065876647E+01  5.109990094E-04  0.00000E+00  9.000E+00
      21     1     1     2   511   501 -1.066078002E+01  2.247367814E+01  6.803692453E+01  7.244129720E+01  5.251470264E-07  0.00000E+00  9.000E+00
</event>
<event>
      6  10011  1.00000E+00  4.39273E+00 -1.00000E+00  2.54140E-01
      21    -1     0     0   511   501  0.000000000E+00  0.000000000E+00  1.887045922E-01  1.887045922E-01  0.000000000E+00  0.00000E+00  9.000E+00
       2    -1     0     0   501     0  0.000000000E+00  0.000000000E+00 -1.098160278E+03  1.098160278E+03  0.000000000E+00  0.00000E+00  9.000E+00
      23     2     1     2     0     0 -3.293862138E+00  2.906295092E+00 -1.044239189E+03  1.044437340E+03  1.986396604E+01  0.00000E+00  9.000E+00
      11     1     3     3     0     0  4.520315972E+00  4.367670675E+00 -1.204132268E+02  1.205771745E+02  5.109878403E-04  0.00000E+00  9.000E+00
     -11     1     3     3     0     0 -7.814178110E+00 -1.461375583E+00 -9.238259622E+02  9.238601655E+02  5.108294295E-04  0.00000E+00  9.000E+00
       2     1     1     2   511     0  3.293862138E+00 -2.906295092E+00 -5.373238458E+01  5.391164282E+01  1.544050816E-06  0.00000E+00  9.000E+00
</event>
<event>
      6  10011  1.00000E+00  9.79944E-01 -1.00000E+00  6.67542E-01
      -2    -1     0     0     0   501  0.000000000E+00  0.000000000E+00  1.391373308E-01  1.391373308E-01  0.000000000E+00  0.00000E+00  9.000E+00
       2    -1     0     0   511     0  0.000000000E+00  0.000000000E+00 -6.363313896E+02  6.363313896E+02  0.000000000E+00  0.00000E+00  9.000E+00
      23     2     1     2     0     0 -5.205007438E-01 -8.302825826E-01 -5.394477396E+02  5.397210514E+02  1.714611441E+01  0.00000E+00  9.000E+00
      11     1     3     3     0     0 -1.671719811E+00 -1.829201068E-01 -5.069017417E+00  5.340697026E+00  5.109984555E-04  0.00000E+00  9.000E+00
     -11     1     3     3     0     0  1.151219067E+00 -6.473624758E-01 -5.343787222E+02  5.343803543E+02  5.110140598E-04  0.00000E+00  9.000E+00
      21     1     1     2   511   501  5.205007438E-01  8.302825826E-01 -9.674451271E+01  9.674947561E+01  1.285996974E-06  0.00000E+00  9.000E+00
</event>
<event>
      6  10011  1.00000E+00  8.10559E+00 -1.00000E+00  2.06863E-01
      -2    -1     0     0     0   501  0.000000000E+00  0.000000000E+00  2.249609846E+02  2.249609846E+02  0.000000000E+00  0.00000E+00  9.000E+00
       2    -1     0     0   511     0  0.000000000E+00  0.000000000E+00 -1.253756570E+00  1.253756570E+00  0.000000000E+00  0.00000E+00  9.000E+00
      23     2     1     2     0     0 -6.117954331E+00  5.317071165E+00  2.050068231E+02  2.058332359E+02  1.654759466E+01  0.00000E+00  9.000E+00
      11     1     3     3     0     0  2.202172421E+00 -4.367398335E+00  8.708109905E+01  8.721835554E+01  5.109979694E-04  0.00000E+00  9.000E+00
     -11     1     3     3     0     0 -8.320126752E+00  9.684469500E+00  1.179257240E+02  1.186148804E+02  5.109993086E-04  0.00000E+00  9.000E+00
      21     1     1     2   511   501  6.117954331E+00 -5.317071165E+00  1.870040496E+01  2.038150526E+01  3.559553380E-07  0.00000E+00  9.000E+00
</event>
<event>
      6  10011  1.00000E+00  5.35552E+01 -1.00000E+00  1.37366E-01
       2    -1     0     0   511     0  0.000000000E+00  0.000000000E+00  8.275759352E+02  8.275759352E+02  0.000000000E+00  0.00000E+00  9.000E+00
      -2    -1     0     0     0   501  0.000000000E+00  0.000000000E+00 -1.586071969E+01  1.586071969E+01  0.000000000E+00  0.00000E+00  9.000E+00
      23     2     1     2     0     0  3.009274206E-01  5.355437733E+01  1.541658564E+02  1.837099528E+02  8.434496761E+01  0.00000E+00  9.000E+00
      11     1     3     3     0     0 -1.036792646E+01 -1.492874143E+01  8.065345395E+01  8.267612022E+01  5.109983392E-04  0.00000E+00  9.000E+00
     -11     1     3     3     0     0  1.066885388E+01  6.848311875E+01  7.351240250E+01  1.010338325E+02  5.110011862E-04  0.00000E+00  9.000E+00
      21     1     1     2   511   501 -3.009274206E-01 -5.355437733E+01  6.575493591E+02  6.597267021E+02  4.444444628E-06  0.00000E+00  9.000E+00
</event>
<event>
      6  10011  1.00000E+00  5.53770E+00 -1.00000E+00  2.30937E-01
      21    -1     0     0   511   501  0.000000000E+00  0.000000000E+00  8.068043003E+01  8.068043003E+01  0.000000000E+00  0.00000E+00  9.000E+00
       1    -1     0     0   501     0  0.000000000E+00  0.000000000E+00 -1.080555761E+03  1.080555761E+03  0.000000000E+00  0.00000E+00  9.000E+00
      23     2     1     2     0     0  1.950749492E+00  5.182732083E+00 -1.078483392E+03  1.082433314E+03  9.222139777E+01  0.00000E+00  9.000E+00
      11     1     3     3     0     0  1.475171608E+01  2.673446580E+01 -9.899209691E+02  9.903917759E+02  5.107914271E-04  0.00000E+00  9.000E+00
     -11     1     3     3     0     0 -1.280096659E+01 -2.155173372E+01 -8.856242319E+01  9.204153830E+01  5.110429666E-04  0.00000E+00  9.000E+00
       1     1     1     2   511     0 -1.950749492E+00 -5.182732083E+00  7.860806116E+01  7.880287695E+01  1.645887050E-07  0.00000E+00  9.000E+00
</event>
<event>
      6  10011  1.00000E+00  2.29834E+00 -1.00000E+00  3.36874E-01
      -4    -1     0     0     0   511  0.000000000E+00  0.000000000E+00  2.281743256E+01  2.281743256E+01  0.000000000E+00  0.00000E+00  9.000E+00
       4    -1     0     0   501     0  0.000000000E+00  0.000000000E+00 -4.579921168E+00  4.579921168E+00  0.000000000E+00  0.00000E+00  9.000E+00
      23     2     1     2     0     0  8.008575131E-01  2.154300149E+00  1.440144406E+01  2.292546436E+01  1.768878016E+01  0.00000E+00  9.000E+00
      11     1     3     3     0     0  8.916551818E+00 -7.519678086E-01  9.313538974E+00  1.291558595E+01  5.109989914E-04  0.00000E+00  9.000E+00
     -11     1     3     3     0     0 -8.115694305E+00  2.906267958E+00  5.087905084E+00  1.000987842E+01  5.109989309E-04  0.00000E+00  9.000E+00
      21     1     1     2   501   511 -8.008575131E-01 -2.154300149E+00  3.836067333E+00  4.471889362E+00  2.735933442E-08  0.00000E+00  9.000E+00
</event>
<event>
      6  10011  1.00000E+00  3.17410E+00 -1.00000E+00  2.89494E-01
       2    -1     0     0   511     0  0.000000000E+00  0.000000000E+00  2.129971345E+02  2.129971345E+02  0.000000000E+00  0.00000E+00  9.000E+00
      -2    -1     0     0     0   501  0.000000000E+00  0.000000000E+00 -6.808737575E-01  6.808737575E-01  0.000000000E+00  0.00000E+00  9.000E+00
      23     2     1     2     0     0  2.337714727E+00 -2.147095472E+00  1.791557114E+02  1.803658939E+02  2.061581510E+01  0.00000E+00  9.000E+00
      11     1     3     3     0     0  4.560276878E+00 -6.820041010E+00  2.946769142E+01  3.058846061E+01  5.109993312E-04  0.00000E+00  9.000E+00
     -11     1     3     3     0     0 -2.222562150E+00  4.672945538E+00  1.496880199E+02  1.497774333E+02  5.110059847E-04  0.00000E+00  9.000E+00
      21     1     1     2   511   501 -2.337714727E+00  2.147095472E+00  3.316054938E+01  3.331211438E+01  4.996890616E-07  0.00000E+00  9.000E+00
</event>
<event>
      6  10011  1.00000E+00  1.20054E+01 -1.00000E+00  1.86954E-01
      21    -1     0     0   501   511  0.000000000E+00  0.000000000E+00  1.195372725E+02  1.195372725E+02  0.000000000E+00  0.00000E+00  9.000E+00
      -1    -1     0     0     0   501  0.000000000E+00  0.000000000E+00 -1.182340578E+01  1.182340578E+01  0.000000000E+00  0.00000E+00  9.000E+00
      23     2     1     2     0     0 -9.695831257E+00  7.079600387E+00  6.870676615E+01  9.054788885E+01  5.774227719E+01  0.00000E+00  9.000E+00
      11     1     3     3     0     0  4.834813804E+00 -4.540777820E+00 -8.697982165E+00  1.093841770E+01  5.109988055E-04  0.00000E+00  9.000E+00
     -11     1     3     3     0     0 -1.453064506E+01  1.162037821E+01  7.740474832E+01  7.960947116E+01  5.109987250E-04  0.00000E+00  9.000E+00
      -1     1     1     2     0   511  9.695831257E+00 -7.079600387E+00  3.900710058E+01  4.081278943E+01  4.263138622E-07  0.00000E+00  9.000E+00
</event>
<event>
      6  10011  1.00000E+00  9.40741E+00 -1.00000E+00  1.98815E-01
      21    -1     0     0   511   501  0.000000000E+00  0.000000000E+00  2.621511939E+00  2.621511939E+00  0.000000000E+00  0.00000E+00  9.000E+00
       4    -1     0     0   501     0  0.000000000E+00  0.000000000E+00 -4.269012953E+02  4.269012953E+02  0.000000000E+00  0.00000E+00  9.000E+00
      23     2     1     2     0     0  8.168813600E+00 -4.665807296E+00 -4.165683464E+02  4.173586988E+02  2.388717222E+01  0.00000E+00  9.000E+00
      11     1     3     3     0     0  1.503814942E+01 -6.089343838E+00 -3.586917230E+02  3.590584607E+02  5.110596647E-04  0.00000E+00  9.000E+00
     -11     1     3     3     0     0 -6.869335817E+00  1.423536542E+00 -5.787662344E+01  5.830023818E+01  5.110050754E-04  0.00000E+00  9.000E+00
       4     1     1     2   511     0 -8.168813600E+00  4.665807296E+00 -7.711436968E+00  1.216410841E+01  4.845527350E-07  0.00000E+00  9.000E+00
</event>
<event>
      6  10011  1.00000E+00  5.16086E+00 -1.00000E+00  2.36052E-01
       3    -1     0     0   511     0  0.000000000E+00  0.000000000E+00  5.612992026E+01  5.612992026E+01  0.000000000E+00  0.00000E+00  9.000E+00
      -3    -1     0     0     0   501  0.000000000E+00  0.000000000E+00 -4.434058923E+01  4.434058923E+01  0.000000000E+00  0.00000E+00  9.000E+00
      23     2     1     2     0     0 -1.774002046E+00 -4.846378790E+00  3.967163815E+00  9.109923580E+01  9.086637389E+01  0.00000E+00  9.000E+00
      11     1     3     3     0     0 -1.367966233E+01 -3.600938441E+01  2.996717481E+01  4.880410324E+01  5.109987158E-04  0.00000E+00  9.000E+00
     -11     1     3     3     0     0  1.190566028E+01  3.116300562E+01 -2.600001099E+01  4.229513255E+01  5.109995866E-04  0.00000E+00  9.000E+00
      21     1     1     2   511   501  1.774002046E+00  4.846378790E+00  7.822167220E+00  9.371273695E+00  9.651665694E-08  0.00000E+00  9.000E+00
</event>
<event>
      6  10011  1.00000E+00  7.89886E+00 -1.00000E+00  2.08329E-01
      -2    -1     0     0     0   501  0.000000000E+00  0.000000000E+00  7.887906098E+01  7.887906098E+01  0.000000000E+00  0.00000E+00  9.000E+00
      21    -1     0     0   501   511  0.000000000E+00  0.000000000E+00 -2.779574400E+00  2.779574400E+00  0.000000000E+00  0.00000E+00  9.000E+00
      23     2     1     2     0     0 -7.115748280E+00  3.429021636E+00  5.336346747E+01  5.758959660E+01  2.016209098E+01  0.00000E+00  9.000E+00
      11     1     3     3     0     0  1.543931895E+00  1.059860486E+00  4.583406376E+01  4.587230571E+01  5.109997131E-04  0.00000E+00  9.000E+00
     -11     1     3     3     0     0 -8.659680175E+00  2.369161150E+00  7.529403710E+00  1.171729089E+01  5.109989055E-04  0.00000E+00  9.000E+00
      -2     1     1     2     0   511  7.115748280E+00 -3.429021636E+00  2.273601910E+01  2.406903877E+01  1.613528120E-07  0.00000E+00  9.000E+00
</event>
<event>
      6  10011  1.00000E+00  2.65369E+00 -1.00000E+00  3.13871E-01
      21    -1     0     0   511   501  0.000000000E+00  0.000000000E+00  1.062918026E+01  1.062918026E+01  0.000000000E+00  0.00000E+00  9.000E+00
       1    -1     0     0   501     0  0.000000000E+00  0.000000000E+00 -3.102601786E+01  3.102601786E+01  0.000000000E+00  0.00000E+00  9.000E+00
      23     2     1     2     0     0 -2.494383237E+00 -9.056127968E-01 -2.260633140E+01  3.820209154E+01  3.068080012E+01  0.00000E+00  9.000E+00
      11     1     3     3     0     0  4.684765814E+00  1.370129850E+01 -9.679871127E+00  1.741759216E+01  5.109988773E-04  0.00000E+00  9.000E+00
     -11     1     3     3     0     0 -7.179149051E+00 -1.460691130E+01 -1.292646027E+01  2.078449937E+01  5.109989144E-04  0.00000E+00  9.000E+00
       1     1     1     2   511     0  2.494383237E+00  9.056127968E-01  2.209493800E+00  3.453106590E+00  4.337404304E-08  0.00000E+00  9.000E+00
</event>
<event>
      6  10011  1.00000E+00  3.79593E+00 -1.00000E+00  2.68833E-01
      21    -1     0     0   501   511  0.000000000E+00  0.000000000E+00  6.057973548E+00  6.057973548E+00  0.000000000E+00  0.00000E+00  9.000E+00
      -3    -1     0     0     0   501  0.000000000E+00  0.000000000E+00 -9.585106644E+01  9.585106644E+01  0.000000000E+00  0.00000E+00  9.000E+00
      23     2     1     2     0     0 -3.787679270E+00 -2.501601144E-01 -8.357524090E+01  9.462407069E+01  4.420955516E+01  0.00000E+00  9.000E+00
      11     1     3     3     0     0 -1.305303750E+01  1.895455824E+01 -4.150194257E+01  4.745596173E+01  5.109982482E-04  0.00000E+00  9.000E+00
     -11     1     3     3     0     0  9.265358234E+00 -1.920471835E+01 -4.207329833E+01  4.716810896E+01  5.109983710E-04  0.00000E+00  9.000E+00
      -3     1     1     2     0   511  3.787679270E+00  2.501601144E-01 -6.217851989E+00  7.284969299E+00  1.059090270E-07  0.00000E+00  9.000E+00
</event>
<event>
      6  10011  1.00000E+00  1.17991E+01 -1.00000E+00  1.87749E-01
      -2    -1     0     0     0   501  0.000000000E+00  0.000000000E+00  1.465529760E+01  1.465529760E+01  0.000000000E+00  0.00000E+00  9.000E+00
       2    -1     0     0   511     0  0.000000000E+00  0.000000000E+00 -1.438419558E+02  1.438419558E+02  0.000000000E+00  0.00000E+00  9.000E+00
      23     2     1     2     0     0  1.150078722E+01  2.636544748E+00 -7.749809400E+01  1.054790759E+02  7.057380112E+01  0.00000E+00  9.000E+00
      11     1     3     3     0     0  8.842284894E+00  1.362739044E+01  8.778279357E+00  1.846483038E+01  5.109989775E-04  0.00000E+00  9.000E+00
     -11     1     3     3     0     0  2.658502330E+00 -1.099084569E+01 -8.627637336E+01  8.701424552E+01  5.109998253E-04  0.00000E+00  9.000E+00
      21     1     1     2   511   501 -1.150078722E+01 -2.636544748E+00 -5.168856423E+01  5.301817751E+01  5.251470264E-07  0.00000E+00  9.000E+00
</event>
<event>
      6  10011  1.00000E+00  4.47223E+00 -1.00000E+00  2.52451E-01
       1    -1     0     0   501     0  0.000000000E+00  0.000000000E+00  2.395930364E+02  2.395930364E+02  0.000000000E+00  0.00000E+00  9.000E+00
      21    -1     0     0   511   501  0.000000000E+00  0.000000000E+00 -1.167484637E+01  1.167484637E+01  0.000000000E+00  0.00000E+00  9.000E+00
      23     2     1     2     0     0  4.290823223E+00 -1.260834589E+00  2.286966446E+02  2.467284049E+02  9.248107749E+01  0.00000E+00  9.000E+00
      11     1     3     3     0     0  2.991905259E+01 -8.392205518E+00  2.139521317E+01  3.772709859E+01  5.110010552E-04  0.00000E+00  9.000E+00
     -11     1     3     3     0     0 -2.562822936E+01  7.131370929E+00  2.073014314E+02  2.090013064E+02  5.110096764E-04  0.00000E+00  9.000E+00
       1     1     1     2   511     0 -4.290823223E+00  1.260834589E+00 -7.784545231E-01  4.539477860E+00  1.128128741E-07  0.00000E+00  9.000E+00
</event>
<event>
      6  10011  1.00000E+00  1.23430E+00 -1.00000E+00  5.23187E-01
      -2    -1     0     0     0   511  0.000000000E+00  0.000000000E+00  1.497353857E-01  1.497353857E-01  0.000000000E+00  0.00000E+00  9.000E+00
       2    -1     0     0   501     0  0.000000000E+00  0.000000000E+00 -6.501071968E+02  6.501071968E+02  0.000000000E+00  0.00000E+00  9.000E+00
      23     2     1     2     0     0  1.118751317E+00 -5.214374960E-01 -6.353182869E+02  6.355658147E+02  1.769337970E+01  0.00000E+00  9.000E+00
      11     1     3     3     0     0  8.829166499E+00  1.660431211E+00 -4.249747473E+02  4.250696967E+02  5.109451442E-04  0.00000E+00  9.000E+00
     -11     1     3     3     0     0 -7.710415182E+00 -2.181868707E+00 -2.103435396E+02  2.104961180E+02  5.109499558E-04  0.00000E+00  9.000E+00
      21     1     1     2   501   511 -1.118751317E+00  5.214374960E-01 -1.463917449E+01  1.469111743E+01  3.150899776E-07  0.00000E+00  9.000E+00
</event>
<event>
      6  10011  1.00000E+00  2.12889E+00 -1.00000E+00  3.50672E-01
      -2    -1     0     0     0   501  0.000000000E+00  0.000000000E+00  2.105450985E-01  2.105450985E-01  0.000000000E+00  0.00000E+00  9.000E+00
       2    -1     0     0   511     0  0.000000000E+00  0.000000000E+00 -1.392248100E+03  1.392248100E+03  0.000000000E+00  0.00000E+00  9.000E+00
      23     2     1     2     0     0  1.753011297E+00  1.207950389E+00 -8.193155007E+02  8.197326342E+02  2.606088429E+01  0.00000E+00  9.000E+00
      11     1     3     3     0     0  7.724368472E+00 -1.776869683E+00 -8.098306086E+01  8.137001463E+01  5.109946400E-04  0.00000E+00  9.000E+00
     -11     1     3     3     0     0 -5.971357175E+00  2.984820071E+00 -7.383324399E+02  7.383626196E+02  5.110797964E-04  0.00000E+00  9.000E+00
      21     1     1     2   511   501 -1.753011297E+00 -1.207950389E+00 -5.727220542E+02  5.727260109E+02  4.070608873E-06  0.00000E+00  9.000E+00
</event>
<event>
      6  10011  1.00000E+00  6.47872E+00 -1.00000E+00  2.20341E-01
      21    -1     0     0   501   511  0.000000000E+00  0.000000000E+00  4.698527546E+01  4.698527546E+01  0.000000000E+00  0.00000E+00  9.000E+00
      -1    -1     0     0     0   501  0.000000000E+00  0.000000000E+00 -2.776095233E+02  2.776095233E+02  0.000000000E+00  0.00000E+00  9.000E+00
      23     2     1     2     0     0  6.466865833E+00  3.917902675E-01 -2.672267745E+02  2.874233202E+02  1.056411005E+02  0.00000E+00  9.000E+00
      11     1     3     3     0     0  1.732483139E+01 -3.674754545E+01 -4.031082839E+01  5.723193833E+01  5.109999756E-04  0.00000E+00  9.000E+00
     -11     1     3     3     0     0 -1.085796555E+01  3.713933571E+01 -2.269159461E+02  2.301913819E+02  5.110134550E-04  0.00000E+00  9.000E+00
      -1     1     1     2     0   511 -6.466865833E+00 -3.917902675E-01  3.660252672E+01  3.717147853E+01  6.975749076E-07  0.00000E+00  9.000E+00
</event>
<event>
      6  10011  1.00000E+00  1.59430E+01 -1.00000E+00  1.74879E-01
      21    -1     0     0   511   501  0.000000000E+00  0.000000000E+00  3.746013920E+00  3.746013920E+00  0.000000000E+00  0.00000E+00  9.000E+00
       1    -1     0     0   501     0  0.000000000E+00  0.000000000E+00 -1.016949917E+03  1.016949917E+03  0.000000000E+00  0.00000E+00  9.000E+00
      23     2     1     2     0     0  1.583238183E+01  1.874854431E+00 -9.754147491E+02  9.796813049E+02  8.992967758E+01  0.00000E+00  9.000E+00
      11     1     3     3     0     0  1.449301101E+01 -4.112607055E+01 -3.354699630E+02  3.382920294E+02  5.109866601E-04  0.00000E+00  9.000E+00
     -11     1     3     3     0     0  1.339370820E+00  4.300092498E+01 -6.399447861E+02  6.413892755E+02  5.108830064E-04  0.00000E+00  9.000E+00
       1     1     1     2   511     0 -1.583238183E+01 -1.874854431E+00 -3.778915399E+01  4.101462608E+01  8.615010690E-07  0.00000E+00  9.000E+00
</event>
<event>
      6  10011  1.00000E+00  6.48482E+00 -1.00000E+00  2.20281E-01
       2    -1     0     0   501     0  0.000000000E+00  0.000000000E+00  1.676857163E+02  1.676857163E+02  0.000000000E+00  0.00000E+00  9.000E+00
      21    -1     0     0   511   501  0.000000000E+00  0.000000000E+00 -1.718677654E+00  1.718677654E+00  0.000000000E+00  0.00000E+00  9.000E+00
      23     2     1     2     0     0 -1.705001256E+00  6.256661341E+00  1.462215762E+02  1.486213208E+02  2.579718636E+01  0.00000E+00  9.000E+00
      11     1     3     3     0     0  1.014545281E+00  3.028897777E+00  1.436362093E+02  1.436717236E+02  5.109907657E-04  0.00000E+00  9.000E+00
     -11     1     3     3     0     0 -2.719546537E+00  3.227763564E+00  2.585366852E+00  4.949597258E+00  5.109989509E-04  0.00000E+00  9.000E+00
       2     1     1     2   511     0  1.705001256E+00 -6.256661341E+00  1.974546243E+01  2.078307309E+01  3.278255463E-07  0.00000E+00  9.000E+00
</event>
<event>
      6  10011  1.00000E+00  1.72209E+01 -1.00000E+00  1.71870E-01
       2    -1     0     0   501     0  0.000000000E+00  0.000000000E+00  1.332336412E+03  1.332336412E+03  0.000000000E+00  0.00000E+00  9.000E+00
      -2    -1     0     0     0   511  0.000000000E+00  0.000000000E+00 -7.748577981E-01  7.748577981E-01  0.000000000E+00  0.00000E+00  9.000E+00
      23     2     1     2     0     0  1.709837299E+01 -2.050351567E+00  1.218824272E+03  1.219066309E+03  1.713187896E+01  0.00000E+00  9.000E+00
      11     1     3     3     0     0  1.862046118E+01 -6.256312484E+00  9.302534852E+02  9.304608588E+02  5.110196772E-04  0.00000E+00  9.000E+00
     -11     1     3     3     0     0 -1.522088184E+00  4.205960917E+00  2.885707866E+02  2.886054500E+02  5.108948282E-04  0.00000E+00  9.000E+00
      21     1     1     2   501   511 -1.709837299E+01  2.050351567E+00  1.127372829E+02  1.140449615E+02  3.823069980E-06  0.00000E+00  9.000E+00
</event>
<event>
      6  10011  1.00000E+00  1.60279E+01 -1.00000E+00  1.74668E-01
       1    -1     0     0   501     0  0.000000000E+00  0.000000000E+00  1.354038673E+02  1.354038673E+02  0.000000000E+00  0.00000E+00  9.000E+00
      -1    -1     0     0     0   511  0.000000000E+00  0.000000000E+00 -5.599160658E+01  5.599160658E+01  0.000000000E+00  0.00000E+00  9.000E+00
      23     2     1     2     0     0 -3.323106625E+00 -1.567966816E+01  1.179196092E+02  1.496856318E+02  9.079569973E+01  0.00000E+00  9.000E+00
      11     1     3     3     0     0 -5.008516949E+00 -2.365234433E+01  1.315781620E+02  1.337809080E+02  5.110022147E-04  0.00000E+00  9.000E+00
     -11     1     3     3     0     0  1.685410324E+00  7.972676169E+00 -1.365855278E+01  1.590472375E+01  5.109988727E-04  0.00000E+00  9.000E+00
      21     1     1     2   501   511  3.323106625E+00  1.567966816E+01 -3.850734855E+01  4.170984205E+01  4.762547259E-07  0.00000E+00  9.000E+00
</event>
<event>
      6  10011  1.00000E+00  9.83572E+00 -1.00000E+00  1.96534E-01
       2    -1     0     0   501     0  0.000000000E+00  0.000000000E+00  5.954631791E+02  5.954631791E+02  0.000000000E+00  0.00000E+00  9.000E+00
      -2    -1     0     0     0   511  0.000000000E+00  0.000000000E+00 -1.067274831E+00  1.067274831E+00  0.000000000E+00  0.00000E+00  9.000E+00
      23     2     1     2     0     0 -6.388115518E+00 -7.478857241E+00  5.638435806E+02  5.644339462E+02  2.386115964E+01  0.00000E+00  9.000E+00
      11     1     3     3     0     0 -1.159681821E+01 -9.635639763E+00  2.080175876E+02  2.085632961E+02  5.109852105E-04  0.00000E+00  9.000E+00
     -11     1     3     3     0     0  5.208702692E+00  2.156782522E+00  3.558259930E+02  3.558706501E+02  5.110516633E-04  0.00000E+00  9.000E+00
      21     1     1     2   501   511  6.388115518E+00  7.478857241E+00  3.055232368E+01  3.209650772E+01  7.258104609E-07  0.00000E+00  9.000E+00
</event>
<event>
      6  10011  1.00000E+00  7.99062E+00 -1.00000E+00  2.07671E-01
       2    -1     0     0   501     0  0.000000000E+00  0.000000000E+00  1.008148059E+02  1.008148059E+02  0.000000000E+00  0.00000E+00  9.000E+00
      -2    -1     0     0     0   511  0.000000000E+00  0.000000000E+00 -2.363417797E+01  2.363417797E+01  0.000000000E+00  0.00000E+00  9.000E+00
      23     2     1     2     0     0  4.703420045E+00 -6.459714401E+00  7.096393884E+01  1.143248892E+02  8.927737451E+01  0.00000E+00  9.000E+00
      11     1     3     3     0     0 -2.890110538E+01 -2.397234076E+01  4.500862734E+00  3.781804833E+01  5.109989282E-04  0.00000E+00  9.000E+00
     -11     1     3     3     0     0  3.360452543E+01  1.751262636E+01  6.646307610E+01  7.650684085E+01  5.110002068E-04  0.00000E+00  9.000E+00
      21     1     1     2   501   511 -4.703420045E+00  6.459714401E+00  6.216689134E+00  1.012409473E+01  7.972469389E-08  0.00000E+00  9.000E+00
</event>
<event>
      6  10011  1.00000E+00  2.02656E+00 -1.00000E+00  3.60207E-01
       1    -1     0     0   501     0  0.000000000E+00  0.000000000E+00  8.107656926E+00  8.107656926E+00  0.000000000E+00  0.00000E+00  9.000E+00
      -1    -1     0     0     0   511  0.000000000E+00  0.000000000E+00 -3.775461348E+01  3.775461348E+01  0.000000000E+00  0.00000E+00  9.000E+00
      23     2     1     2     0     0 -1.685608641E+00 -1.125027472E+00 -2.425500715E+01  4.010205499E+01  3.187102883E+01  0.00000E+00  9.000E+00
      11     1     3     3     0     0 -5.249500446E+00 -1.026647139E+01 -2.745802512E+01  2.978088034E+01  5.109990405E-04  0.00000E+00  9.000E+00
     -11     1     3     3     0     0  3.563891806E+00  9.141443922E+00  3.203017970E+00  1.032117465E+01  5.109989660E-04  0.00000E+00  9.000E+00
      21     1     1     2   501   511  1.685608641E+00  1.125027472E+00 -5.391949407E+00  5.760215422E+00  4.018740544E-08  0.00000E+00  9.000E+00
</event>
<event>
      6  10011  1.00000E+00  6.04709E+00 -1.00000E+00  2.24868E-01
       2    -1     0     0   501     0  0.000000000E+00  0.000000000E+00  6.710009202E+02  6.710009202E+02  0.000000000E+00  0.00000E+00  9.000E+00
      21    -1     0     0   511   501  0.000000000E+00  0.000000000E+00 -1.721112911E+00  1.721112911E+00  0.000000000E+00  0.00000E+00  9.000E+00
      23     2     1     2     0     0  2.418459852E+00  5.542418773E+00  6.620596303E+02  6.633040551E+02  4.015903517E+01  0.00000E+00  9.000E+00
      11     1     3     3     0     0  1.109035131E+01 -3.421468674E+00  5.983124005E+01  6.094653088E+01  5.110132792E-04  0.00000E+00  9.000E+00
     -11     1     3     3     0     0 -8.671891461E+00  8.963887447E+00  6.022283902E+02  6.023575242E+02  5.111700730E-04  0.00000E+00  9.000E+00
       2     1     1     2   511     0 -2.418459852E+00 -5.542418773E+00  7.220177017E+00  9.417978025E+00  6.517182173E-07  0.00000E+00  9.000E+00
</event>
<event>
      6  10011  1.00000E+00  9.99908E-01 -1.00000E+00  6.51577E-01
       2    -1     0     0   511     0  0.000000000E+00  0.000000000E+00  2.887822875E+02  2.887822875E+02  0.000000000E+00  0.00000E+00  9.000E+00
      -2    -1     0     0     0   501  0.000000000E+00  0.000000000E+00 -4.289041695E-01  4.289041695E-01  0.000000000E+00  0.00000E+00  9.000E+00
      23     2     1     2     0     0  5.575683393E-01 -8.300201580E-01  2.298880527E+02  2.307373111E+02  1.975323194E+01  0.00000E+00  9.000E+00
      11     1     3     3     0     0 -5.662249813E+00  3.051755903E+00  1.940705452E+02  1.941771120E+02  5.109878908E-04  0.00000E+00  9.000E+00
     -11     1     3     3     0     0  6.219818152E+00 -3.881776061E+00  3.581750744E+01  3.656019916E+01  5.109984249E-04  0.00000E+00  9.000E+00
      21     1     1     2   511   501 -5.575683393E-01  8.300201580E-01  5.846533065E+01  5.847388053E+01  5.683967806E-07  0.00000E+00  9.000E+00
</event>
<event>
      6  10011  1.00000E+00  1.47089E+00 -1.00000E+00  4.51116E-01
       1    -1     0     0   501     0  0.000000000E+00  0.000000000E+00  6.081063280E+00  6.081063280E+00  0.000000000E+00  0.00000E+00  9.000E+00
      -1    -1     0     0     0   511  0.000000000E+00  0.000000000E+00 -3.608714660E+02  3.608714660E+02  0.000000000E+00  0.00000E+00  9.000E+00
      23     2     1     2     0     0  2.700042454E-01  1.445892438E+00 -3.453915100E+02  3.574392390E+02  9.200734157E+01  0.00000E+00  9.000E+00
      11     1     3     3     0     0  6.722873703E+00  1.523669969E+01 -3.412555188E+02  3.416616501E+02  5.110338039E-04  0.00000E+00  9.000E+00
     -11     1     3     3     0     0 -6.452869457E+00 -1.379080725E+01 -4.135991231E+00  1.577758893E+01  5.109993292E-04  0.00000E+00  9.000E+00
      21     1     1     2   501   511 -2.700042454E-01 -1.445892438E+00 -9.398892692E+00  9.513290234E+00  5.128197334E-08  0.00000E+00  9.000E+00
</event>
<event>
      6  10011  1.00000E+00  2.94898E+00 -1.00000E+00  2.99005E-01
       4    -1     0     0   511     0  0.000000000E+00  0.000000000E+00  2.875683776E+01  2.875683776E+01  0.000000000E+00  0.00000E+00  9.000E+00
      -4    -1     0     0     0   501  0.000000000E+00  0.000000000E+00 -1.310614482E+02  1.310614482E+02  0.000000000E+00  0.00000E+00  9.000E+00
      23     2     1     2     0     0 -4.829683764E-01 -2.909163892E+00 -1.161477786E+02  1.456644951E+02  8.785864885E+01  0.00000E+00  9.000E+00
      11     1     3     3     0     0 -8.696216616E+00 -3.328183205E+01 -1.077380930E+02  1.130964244E+02  5.110006435E-04  0.00000E+00  9.000E+00
     -11     1     3     3     0     0  8.213248239E+00  3.037266816E+01 -8.409685545E+00  3.256807070E+01  5.109996706E-04  0.00000E+00  9.000E+00
      21     1     1     2   511   501  4.829683764E-01  2.909163892E+00  1.384316810E+01  1.415379087E+01  1.722518805E-07  0.00000E+00  9.000E+00
</event>
<event>
      6  10011  1.00000E+00  4.62371E+01 -1.00000E+00  1.41013E-01
      21    -1     0     0   511   501  0.000000000E+00  0.000000000E+00  3.013774460E+00  3.013774460E+00  0.000000000E+00  0.00000E+00  9.000E+00
       2    -1     0     0   501     0  0.000000000E+00  0.000000000E+00 -1.957697774E+03  1.957697774E+03  0.000000000E+00  0.00000E+00  9.000E+00
      23     2     1     2     0     0  3.610087521E+01  2.888940130E+01 -1.040428738E+03  1.045287846E+03  8.942512321E+01  0.00000E+00  9.000E+00
      11     1     3     3     0     0  4.556822880E+01  5.473701538E+01 -8.332686190E+02  8.363068789E+02  5.109874736E-04  0.00000E+00  9.000E+00
     -11     1     3     3     0     0 -9.467353590E+00 -2.584761408E+01 -2.071601185E+02  2.089809672E+02  5.110169624E-04  0.00000E+00  9.000E+00
       2     1     1     2   511     0 -3.610087521E+01 -2.888940130E+01 -9.142552615E+02  9.154237019E+02  1.373961404E-05  0.00000E+00  9.000E+00
</event>
<event>
      6  10011  1.00000E+00  9.78628E+00 -1.00000E+00  1.96789E-01
       1    -1     0     0   501     0  0.000000000E+00  0.000000000E+00  6.992989139E+01  6.992989139E+01  0.000000000E+00  0.00000E+00  9.000E+00
      21    -1     0     0   511   501  0.000000000E+00  0.000000000E+00 -3.637191995E+01  3.637191995E+01  0.000000000E+00  0.00000E+00  9.000E+00
      23     2     1     2     0     0 -9.545303403E+00 -2.158368126E+00  3.493648090E+01  9.641891407E+01  8.933240131E+01  0.00000E+00  9.000E+00
      11     1     3     3     0     0  1.020142951E+01  3.858195494E+01  3.181535669E+01  5.103776379E+01  5.109981299E-04  0.00000E+00  9.000E+00
     -11     1     3     3     0     0 -1.974673291E+01 -4.074032307E+01  3.121124213E+00  4.538115028E+01  5.109982166E-04  0.00000E+00  9.000E+00
       1     1     1     2   511     0  9.545303403E+00  2.158368126E+00 -1.378509469E+00  9.882897266E+00  1.250094591E-07  0.00000E+00  9.000E+00
</event>
<event>
      6  10011  1.00000E+00  1.23208E+00 -1.00000E+00  5.24057E-01
       2    -1     0     0   511     0  0.000000000E+00  0.000000000E+00  1.549571860E+03  1.549571860E+03  0.000000000E+00  0.00000E+00  9.000E+00
      -2    -1     0     0     0   501  0.000000000E+00  0.000000000E+00 -5.849907690E-02  5.849907690E-02  0.000000000E+00  0.00000E+00  9.000E+00
      23     2     1     2     0     0  1.231741952E+00  2.890734751E-02  1.306114031E+03  1.306227910E+03  1.720392205E+01  0.00000E+00  9.000E+00
      11     1     3     3     0     0  6.897779231E+00  5.451152238E+00  8.601351283E+02  8.601800587E+02  5.107146903E-04  0.00000E+00  9.000E+00
     -11     1     3     3     0     0 -5.666037279E+00 -5.422244890E+00  4.459789023E+02  4.460478517E+02  5.110313012E-04  0.00000E+00  9.000E+00
      21     1     1     2   511   501 -1.231741952E+00 -2.890734751E-02  2.433993307E+02  2.434024490E+02  3.075276217E-06  0.00000E+00  9.000E+00
</event>
<event>
      6  10011  1.00000E+00  1.62332E+00 -1.00000E+00  4.11156E-01
       2    -1     0     0   511     0  0.000000000E+00  0.000000000E+00  9.582438849E+02  9.582438849E+02  0.000000000E+00  0.00000E+00  9.000E+00
      -2    -1     0     0     0   501  0.000000000E+00  0.000000000E+00 -2.733809120E+00  2.733809120E+00  0.000000000E+00  0.00000E+00  9.000E+00
      23     2     1     2     0     0 -1.222690100E-01  1.618709554E+00  8.000354026E+02  8.054945464E+02  9.360653724E+01  0.00000E+00  9.000E+00
      11     1     3     3     0     0 -2.173877361E+01  6.494221914E+00  4.757546350E+01  5.270838570E+01  5.109929264E-04  0.00000E+00  9.000E+00
     -11     1     3     3     0     0  2.161650460E+01 -4.875512360E+00  7.524599391E+02  7.527861607E+02  5.110182312E-04  0.00000E+00  9.000E+00
      21     1     1     2   511   501  1.222690100E-01 -1.618709554E+00  1.554746732E+02  1.554831476E+02  2.277880227E-06  0.00000E+00  9.000E+00
</event>
<event>
      6  10011  1.00000E+00  4.02974E+00 -1.00000E+00  2.62607E-01
      -3    -1     0     0     0   501  0.000000000E+00  0.000000000E+00  5.130180562E+00  5.130180562E+00  0.000000000E+00  0.00000E+00  9.000E+00
       3    -1     0     0   511     0  0.000000000E+00  0.000000000E+00 -4.642852451E+02  4.642852451E+02  0.000000000E+00  0.00000E+00  9.000E+00
      23     2     1     2     0     0  3.692940264E+00 -1.612762964E+00 -4.383704875E+02  4.482438066E+02  9.347506090E+01  0.00000E+00  9.000E+00
      11     1     3     3     0     0  3.691818024E+01  2.805451180E+00 -7.825385249E+01  8.657071109E+01  5.109972567E-04  0.00000E+00  9.000E+00
     -11     1     3     3     0     0 -3.322523998E+01 -4.418214144E+00 -3.601166350E+02  3.616730955E+02  5.109653220E-04  0.00000E+00  9.000E+00
      21     1     1     2   511   501 -3.692940264E+00  1.612762964E+00 -2.078457706E+01  2.117161911E+01  3.557213365E-07  0.00000E+00  9.000E+00
</event>
<event>
      6  10011  1.00000E+00  2.04755E+01 -1.00000E+00  1.65490E-01
       2    -1     0     0   501     0  0.000000000E+00  0.000000000E+00  3.118940157E+02  3.118940157E+02  0.000000000E+00  0.00000E+00  9.000E+00
      21    -1     0     0   511   501  0.000000000E+00  0.000000000E+00 -1.969442847E+00  1.969442847E+00  0.000000000E+00  0.00000E+00  9.000E+00
      23     2     1     2     0     0 -1.271260353E+01  1.605109900E+01  2.045783733E+02  2.065458466E+02  1.973899365E+01  0.00000E+00  9.000E+00
      11     1     3     3     0     0  2.570544671E+00  5.881054860E+00  1.885633131E+01  1.991872830E+01  5.109993988E-04  0.00000E+00  9.000E+00
     -11     1     3     3     0     0 -1.528314820E+01  1.017004414E+01  1.857220420E+02  1.866271183E+02  5.109900495E-04  0.00000E+00  9.000E+00
       2     1     1     2   511     0  1.271260353E+01 -1.605109900E+01  1.053461996E+02  1.073176120E+02  1.319741596E-06  0.00000E+00  9.000E+00
</event>
<event>
      6  10011  1.00000E+00  3.06912E+01 -1.00000E+00  1.52321E-01
       2    -1     0     0   511     0  0.000000000E+00  0.000000000E+00  1.245376346E+01  1.245376346E+01  0.000000000E+00  0.00000E+00  9.000E+00
      -2    -1     0     0     0   501  0.000000000E+00  0.000000000E+00 -4.597902922E+02  4.597902922E+02  0.000000000E+00  0.00000E+00  9.000E+00
      23     2     1     2     0     0 -3.250340108E+00  3.051857749E+01 -4.175486706E+02  4.294741507E+02  9.570373787E+01  0.00000E+00  9.000E+00
      11     1     3     3     0     0 -1.520887309E+01 -2.374037096E+01 -4.718976533E+01  5.497080121E+01  5.109894110E-04  0.00000E+00  9.000E+00
     -11     1     3     3     0     0  1.195853298E+01  5.425894845E+01 -3.703589053E+02  3.745033494E+02  5.109913671E-04  0.00000E+00  9.000E+00
      21     1     1     2   511   501  3.250340108E+00 -3.051857749E+01 -2.978785809E+01  4.276990499E+01  1.021354764E-06  0.00000E+00  9.000E+00
</event>
<event>
      6  10011  1.00000E+00  8.16716E+00 -1.00000E+00  2.06438E-01
      21    -1     0     0   511   501  0.000000000E+00  0.000000000E+00  8.711524458E+01  8.711524458E+01  0.000000000E+00  0.00000E+00  9.000E+00
       2    -1     0     0   501     0  0.000000000E+00  0.000000000E+00 -5.610474167E+00  5.610474167E+00  0.000000000E+00  0.00000E+00  9.000E+00
      23     2     1     2     0     0 -7.179730516E+00 -3.892809198E+00  7.256412028E+01  8.061631254E+01  3.415751458E+01  0.00000E+00  9.000E+00
      11     1     3     3     0     0  9.523713563E+00 -1.229815138E+01  2.425007651E+01  2.880992639E+01  5.109987995E-04  0.00000E+00  9.000E+00
     -11     1     3     3     0     0 -1.670344408E+01  8.405342180E+00  4.831404377E+01  5.180638616E+01  5.109995965E-04  0.00000E+00  9.000E+00
       2     1     1     2   511     0  7.179730516E+00  3.892809198E+00  8.940650132E+00  1.210940620E+01  9.678588105E-08  0.00000E+00  9.000E+00
</event>
<event>
      6  10011  1.00000E+00  1.27562E+01 -1.00000E+00  1.84229E-01
       4    -1     0     0   501     0  0.000000000E+00  0.000000000E+00  3.222302846E+01  3.222302846E+01  0.000000000E+00  0.00000E+00  9.000E+00
      21    -1     0     0   511   501  0.000000000E+00  0.000000000E+00 -1.270657794E+02  1.270657794E+02  0.000000000E+00  0.00000E+00  9.000E+00
      23     2     1     2     0     0  1.245836688E+01  2.740311893E+00 -3.072189811E+01  9.391141130E+01  8.782253659E+01  0.00000E+00  9.000E+00
      11     1     3     3     0     0  2.721515357E+01 -3.335203754E+01 -3.389557652E+01  5.478989962E+01  5.109985232E-04  0.00000E+00  9.000E+00
     -11     1     3     3     0     0 -1.475678669E+01  3.609234943E+01  3.173678409E+00  3.912151168E+01  5.109991077E-04  0.00000E+00  9.000E+00
       4     1     1     2   511     0 -1.245836688E+01 -2.740311893E+00 -6.412085285E+01  6.537739659E+01  3.716338847E-07  0.00000E+00  9.000E+00
</event>
<event>
      6  10011  1.00000E+00  2.07316E+01 -1.00000E+00  1.65051E-01
       2    -1     0     0   501     0  0.000000000E+00  0.000000000E+00  5.209095324E+01  5.209095324E+01  0.000000000E+00  0.00000E+00  9.000E+00
      21    -1     0     0   511   501  0.000000000E+00  0.000000000E+00 -7.571541699E+01  7.571541699E+01  0.000000000E+00  0.00000E+00  9.000E+00
      23     2     1     2     0     0  2.022561018E+01 -4.552130686E+00  1.816233697E+01  8.115946342E+01  7.633603879E+01  0.00000E+00  9.000E+00
      11     1     3     3     0     0  3.189848759E+01  2.897629355E+01  5.393359014E+00  4.343071978E+01  5.109994650E-04  0.00000E+00  9.000E+00
     -11     1     3     3     0     0 -1.167287741E+01 -3.352842424E+01  1.276897795E+01  3.772874365E+01  5.109983624E-04  0.00000E+00  9.000E+00
       2     1     1     2   511     0 -2.022561018E+01  4.552130686E+00 -4.178680072E+01  4.664690681E+01  4.397736360E-07  0.00000E+00  9.000E+00
</event>
<event>
      6  10011  1.00000E+00  5.31104E+00 -1.00000E+00  2.33941E-01
       2    -1     0     0   501     0  0.000000000E+00  0.000000000E+00  4.809919862E+02  4.809919862E+02  0.000000000E+00  0.00000E+00  9.000E+00
      21    -1     0     0   511   501  0.000000000E+00  0.000000000E+00 -2.020820316E+00  2.020820316E+00  0.000000000E+00  0.00000E+00  9.000E+00
      23     2     1     2     0     0  3.480283855E-02 -5.310922450E+00  4.770003209E+02  4.773478848E+02  1.742096038E+01  0.00000E+00  9.000E+00
      11     1     3     3     0     0 -1.001952210E+00 -8.256663881E+00  1.032297741E+02  1.035642924E+02  5.109884287E-04  0.00000E+00  9.000E+00
     -11     1     3     3     0     0  1.036755048E+00  2.945741431E+00  3.737705468E+02  3.737835923E+02  5.110168963E-04  0.00000E+00  9.000E+00
       2     1     1     2   511     0 -3.480283855E-02  5.310922450E+00  1.970845016E+00  5.664921763E+00  1.967395518E-07  0.00000E+00  9.000E+00
</event>
<event>
      6  10011  1.00000E+00  4.09337E+00 -1.00000E+00  2.61025E-01
      -2    -1     0     0     0   511  0.000000000E+00  0.000000000E+00  3.072873044E+00  3.072873044E+00  0.000000000E+00  0.00000E+00  9.000E+00
       2    -1     0     0   501     0  0.000000000E+00  0.000000000E+00 -1.654029388E+02  1.654029388E+02  0.000000000E+00  0.00000E+00  9.000E+00
      23     2     1     2     0     0 -8.146704482E-01  4.011477706E+00 -1.630523589E+02  1.643192089E+02  1.994931171E+01  0.00000E+00  9.000E+00
      11     1     3     3     0     0 -4.292005577E+00  1.099893050E+01 -1.186621735E+02  1.192480994E+02  5.110047732E-04  0.00000E+00  9.000E+00
     -11     1     3     3     0     0  3.477335129E+00 -6.987452794E+00 -4.439018536E+01  4.507110952E+01  5.110024007E-04  0.00000E+00  9.000E+00
      21     1     1     2   501   511  8.146704482E-01 -4.011477706E+00  7.222930535E-01  4.156603010E+00  1.700648957E-07  0.00000E+00  9.000E+00
</event>
<event>
      6  10011  1.00000E+00  3.55114E+01 -1.00000E+00  1.48088E-01
      21    -1     0     0   511   501  0.000000000E+00  0.000000000E+00  1.084007269E+01  1.084007269E+01  0.000000000E+00  0.00000E+00  9.000E+00
       1    -1     0     0   501     0  0.000000000E+00  0.000000000E+00 -1.135207584E+03  1.135207584E+03  0.000000000E+00  0.00000E+00  9.000E+00
      23     2     1     2     0     0  3.468673205E+01  7.608747057E+00 -1.096430770E+03  1.100864431E+03  9.209233866E+01  0.00000E+00  9.000E+00
      11     1     3     3     0     0 -8.492734033E+00  9.537596976E+00 -8.834399964E+02  8.835322968E+02  5.112357617E-04  0.00000E+00  9.000E+00
     -11     1     3     3     0     0  4.317946608E+01 -1.928849920E+00 -2.129907737E+02  2.173321339E+02  5.110173691E-04  0.00000E+00  9.000E+00
       1     1     1     2   511     0 -3.468673205E+01 -7.608747057E+00 -2.793674161E+01  4.518322635E+01  8.301632024E-07  0.00000E+00  9.000E+00
</event>
<event>
      6  10011  1.00000E+00  1.37024E+01 -1.00000E+00  1.81118E-01
      -3    -1     0     0     0   501  0.000000000E+00  0.000000000E+00  1.285405810E+01  1.285405810E+01  0.000000000E+00  0.00000E+00  9.000E+00
      21    -1     0     0   501   511  0.000000000E+00  0.000000000E+00 -2.787291031E+01  2.787291031E+01  0.000000000E+00  0.00000E+00  9.000E+00
      23     2     1     2     0     0 -1.154716570E+01  7.376857639E+00 -3.936020146E+00  2.310356831E+01  1.818041665E+01  0.00000E+00  9.000E+00
      11     1     3     3     0     0 -4.176893794E+00 -4.806514047E-01 -9.924135774E+00  1.077803037E+01  5.109988745E-04  0.00000E+00  9.000E+00
     -11     1     3     3     0     0 -7.370271909E+00  7.857509044E+00  5.988115628E+00  1.232553794E+01  5.109989076E-04  0.00000E+00  9.000E+00
      -3     1     1     2     0   511  1.154716570E+01 -7.376857639E+00 -1.108283207E+01  1.762340010E+01  1.833357632E-07  0.00000E+00  9.000E+00
</event>
<event>
      6  10011  1.00000E+00  1.49867E+00 -1.00000E+00  4.44656E-01
      -1    -1     0     0     0   511  0.000000000E+00  0.000000000E+00  1.414700552E+00  1.414700552E+00  0.000000000E+00  0.00000E+00  9.000E+00
       1    -1     0     0   501     0  0.000000000E+00  0.000000000E+00 -6.053937459E+02  6.053937459E+02  0.000000000E+00  0.00000E+00  9.000E+00
      23     2     1     2     0     0 -1.445238586E+00  3.966135594E-01 -6.029884861E+02  6.050119987E+02  4.941819737E+01  0.00000E+00  9.000E+00
      11     1     3     3     0     0  1.881151964E+01  5.150348763E-01 -4.798142285E+02  4.801831238E+02  5.109964285E-04  0.00000E+00  9.000E+00
     -11     1     3     3     0     0 -2.025675823E+01 -1.184213169E-01 -1.231742576E+02  1.248288749E+02  5.109880611E-04  0.00000E+00  9.000E+00
      21     1     1     2   501   511  1.445238586E+00 -3.966135594E-01 -9.905593230E-01  1.796447789E+00  1.134898336E-07  0.00000E+00  9.000E+00
</event>
<event>
      6  10011  1.00000E+00  2.57579E+00 -1.00000E+00  3.18360E-01
      -2    -1     0     0     0   511  0.000000000E+00  0.000000000E+00  7.763816145E+00  7.763816145E+00  0.000000000E+00  0.00000E+00  9.000E+00
       2    -1     0     0   501     0  0.000000000E+00  0.000000000E+00 -7.012402678E+01  7.012402678E+01  0.000000000E+00  0.00000E+00  9.000E+00
      23     2     1     2     0     0  1.241814515E+00  2.256675078E+00 -6.424617828E+01  7.469542070E+01  3.801578309E+01  0.00000E+00  9.000E+00
      11     1     3     3     0     0 -1.841619138E+00 -9.796536612E+00 -7.549217300E-01  9.996679335E+00  5.109990309E-04  0.00000E+00  9.000E+00
     -11     1     3     3     0     0  3.083433653E+00  1.205321169E+01 -6.349125655E+01  6.469874136E+01  5.109979983E-04  0.00000E+00  9.000E+00
      21     1     1     2   501   511 -1.241814515E+00 -2.256675078E+00  1.885967649E+00  3.192422226E+00  8.936330075E-08  0.00000E+00  9.000E+00
</event>
<event>
      6  10011  1.00000E+00  1.28241E+01 -1.00000E+00  1.83994E-01
       2    -1     0     0   501     0  0.000000000E+00  0.000000000E+00  2.118195304E+02  2.118195304E+02  0.000000000E+00  0.00000E+00  9.000E+00
      21    -1     0     0   511   501  0.000000000E+00  0.000000000E+00 -3.418459976E+00  3.418459976E+00  0.000000000E+00  0.00000E+00  9.000E+00
      23     2     1     2     0     0 -1.279660582E+01 -8.394100667E-01  1.965437367E+02  1.977721926E+02  1.788692227E+01  0.00000E+00  9.000E+00
      11     1     3     3     0     0 -2.565614707E+00  6.443436970E+00  3.165233816E+01  3.240325246E+01  5.109998669E-04  0.00000E+00  9.000E+00
     -11     1     3     3     0     0 -1.023099111E+01 -7.282847037E+00  1.648913986E+02  1.653689401E+02  5.109923439E-04  0.00000E+00  9.000E+00
       2     1     1     2   511     0  1.279660582E+01  8.394100667E-01  1.185733371E+01  1.746579779E+01  2.876445218E-07  0.00000E+00  9.000E+00
</event>
<event>
      6  10011  1.00000E+00  6.48106E+00 -1.00000E+00  2.20318E-01
       3    -1     0     0   501     0  0.000000000E+00  0.000000000E+00  1.312677329E+01  1.312677329E+01  0.000000000E+00  0.00000E+00  9.000E+00
      21    -1     0     0   511   501  0.000000000E+00  0.000000000E+00 -3.205151005E+01  3.205151005E+01  0.000000000E+00  0.00000E+00  9.000E+00
      23     2     1     2     0     0  1.892585638E+00  6.198568324E+00  6.371552779E+00  1.906494586E+01  1.675921675E+01  0.00000E+00  9.000E+00
      11     1     3     3     0     0  1.744844291E+00  4.040580655E+00  1.213525717E+01  1.290872730E+01  5.109989000E-04  0.00000E+00  9.000E+00
     -11     1     3     3     0     0  1.477413478E-01  2.157987669E+00 -5.763704396E+00  6.156218556E+00  5.109989036E-04  0.00000E+00  9.000E+00
       3     1     1     2   511     0 -1.892585638E+00 -6.198568324E+00 -2.529628954E+01  2.611333748E+01  2.657257691E-07  0.00000E+00  9.000E+00
</event>
<event>
      6  10011  1.00000E+00  3.04463E+01 -1.00000E+00  1.52561E-01
      -2    -1     0     0     0   501  0.000000000E+00  0.000000000E+00  3.309551996E+01  3.309551996E+01  0.000000000E+00  0.00000E+00  9.000E+00
      21    -1     0     0   501   511  0.000000000E+00  0.000000000E+00 -1.873229333E+02  1.873229333E+02  0.000000000E+00  0.00000E+00  9.000E+00
      23     2     1     2     0     0  2.634053435E+01 -1.526926468E+01  1.445823736E+01  4.900718483E+01  3.557652798E+01  0.00000E+00  9.000E+00
      11     1     3     3     0     0  1.996508351E+01 -6.751103103E+00  2.589427613E+01  3.338705572E+01  5.109988812E-04  0.00000E+00  9.000E+00
     -11     1     3     3     0     0  6.375450842E+00 -8.518161581E+00 -1.143603878E+01  1.562012911E+01  5.109988428E-04  0.00000E+00  9.000E+00
      -2     1     1     2     0   511 -2.634053435E+01  1.526926468E+01 -1.686856507E+02  1.714112684E+02  1.120662432E-06  0.00000E+00  9.000E+00
</event>
<event>
      6  10011  1.00000E+00  1.00330E+01 -1.00000E+00  1.95533E-01
      21    -1     0     0   511   501  0.000000000E+00  0.000000000E+00  1.025751865E+02  1.025751865E+02  0.000000000E+00  0.00000E+00  9.000E+00
       1    -1     0     0   501     0  0.000000000E+00  0.000000000E+00 -1.029054801E+02  1.029054801E+02  0.000000000E+00  0.00000E+00  9.000E+00
      23     2     1     2     0     0  4.428019146E+00  9.003035786E+00 -8.581915850E+01  1.194050717E+02  8.241347696E+01  0.00000E+00  9.000E+00
      11     1     3     3     0     0  2.694042009E+01 -2.445911394E+01 -6.382148425E+01  7.346574945E+01  5.109959021E-04  0.00000E+00  9.000E+00
     -11     1     3     3     0     0 -2.251240094E+01  3.346214973E+01 -2.199767424E+01  4.593932229E+01  5.109990618E-04  0.00000E+00  9.000E+00
       1     1     1     2   511     0 -4.428019146E+00 -9.003035786E+00  8.548886495E+01  8.607559490E+01  3.411031706E-07  0.00000E+00  9.000E+00
</event>
<event>
      6  10011  1.00000E+00  1.14723E+01 -1.00000E+00  1.89051E-01
       2    -1     0     0   511     0  0.000000000E+00  0.000000000E+00  3.383820601E+01  3.383820601E+01  0.000000000E+00  0.00000E+00  9.000E+00
      -2    -1     0     0     0   501  0.000000000E+00  0.000000000E+00 -8.177167131E+01  8.177167131E+01  0.000000000E+00  0.00000E+00  9.000E+00
      23     2     1     2     0     0  1.089645939E+01 -3.588876415E+00 -4.418886313E+01  1.035419485E+02  9.293366779E+01  0.00000E+00  9.000E+00
      11     1     3     3     0     0 -6.369449452E+00  1.029655417E+01  2.667550008E+01  2.929455954E+01  5.109997184E-04  0.00000E+00  9.000E+00
     -11     1     3     3     0     0  1.726590884E+01 -1.388543058E+01 -7.086436321E+01  7.424738893E+01  5.109991778E-04  0.00000E+00  9.000E+00
      21     1     1     2   511   501 -1.089645939E+01  3.588876415E+00 -3.744602172E+00  1.206792884E+01  9.845185332E-08  0.00000E+00  9.000E+00
</event>
<event>
      6  10011  1.00000E+00  1.17616E+01 -1.00000E+00  1.87896E-01
       3    -1     0     0   511     0  0.000000000E+00  0.000000000E+00  1.475884020E+01  1.475884020E+01  0.000000000E+00  0.00000E+00  9.000E+00
      -3    -1     0     0     0   501  0.000000000E+00  0.000000000E+00 -1.902020065E+02  1.902020065E+02  0.000000000E+00  0.00000E+00  9.000E+00
      23     2     1     2     0     0  5.514715718E+00  1.038855850E+01 -1.665105846E+02  1.901917826E+02  9.115264758E+01  0.00000E+00  9.000E+00
      11     1     3     3     0     0  4.555907815E+01 -2.956999022E+00 -1.141164509E+02  1.229102836E+02  5.110047932E-04  0.00000E+00  9.000E+00
     -11     1     3     3     0     0 -4.004436243E+01  1.334555752E+01 -5.239413372E+01  6.728149907E+01  5.109979405E-04  0.00000E+00  9.000E+00
      21     1     1     2   511   501 -5.514715718E+00 -1.038855850E+01 -8.932581660E+00  1.476906403E+01  1.635949687E-07  0.00000E+00  9.000E+00
</event>
<event>
      6  10011  1.00000E+00  9.23415E+01 -1.00000E+00  1.25381E-01
       1    -1     0     0   501     0  0.000000000E+00  0.000000000E+00  5.352714140E+02  5.352714140E+02  0.000000000E+00  0.00000E+00  9.000E+00
      21    -1     0     0   511   501  0.000000000E+00  0.000000000E+00 -2.303076018E+01  2.303076018E+01  0.000000000E+00  0.00000E+00  9.000E+00
      23     2     1     2     0     0  4.397975477E+01  8.119564012E+01  2.858862029E+02  3.138368633E+02  9.075078466E+01  0.00000E+00  9.000E+00
      11     1     3     3     0     0 -2.540037788E-01  1.736344772E+01  1.883992556E+02  1.891978682E+02  5.109958028E-04  0.00000E+00  9.000E+00
     -11     1     3     3     0     0  4.423375855E+01  6.383219240E+01  9.748694731E+01  1.246389950E+02  5.110038651E-04  0.00000E+00  9.000E+00
       1     1     1     2   511     0 -4.397975477E+01 -8.119564012E+01  2.263544509E+02  2.444653109E+02  2.159794680E-06  0.00000E+00  9.000E+00
</event>
<event>
      6  10011  1.00000E+00  5.84314E+00 -1.00000E+00  2.27194E-01
       1    -1     0     0   501     0  0.000000000E+00  0.000000000E+00  3.158984424E+02  3.158984424E+02  0.000000000E+00  0.00000E+00  9.000E+00
      -1    -1     0     0     0   511  0.000000000E+00  0.000000000E+00 -1.007794682E+01  1.007794682E+01  0.000000000E+00  0.00000E+00  9.000E+00
      23     2     1     2     0     0  3.988618364E+00 -4.270035516E+00  3.078184470E+02  3.198011087E+02  8.652404612E+01  0.00000E+00  9.000E+00
      11     1     3     3     0     0 -1.336512639E+00 -1.057706215E+01  3.108312575E+02  3.110140369E+02  5.110171119E-04  0.00000E+00  9.000E+00
     -11     1     3     3     0     0  5.325131003E+00  6.307026638E+00 -3.012810454E+00  8.787071885E+00  5.109989157E-04  0.00000E+00  9.000E+00
      21     1     1     2   501   511 -3.988618364E+00  4.270035516E+00 -1.997951387E+00  6.175280520E+00  1.631901992E-07  0.00000E+00  9.000E+00
</event>
<event>
      6  10011  1.00000E+00  6.58884E+00 -1.00000E+00  2.19263E-01
      -2    -1     0     0     0   501  0.000000000E+00  0.000000000E+00  9.540668002E+00  9.540668002E+00  0.000000000E+00  0.00000E+00  9.000E+00
       2    -1     0     0   511     0  0.000000000E+00  0.000000000E+00 -2.086739139E+01  2.086739139E+01  0.000000000E+00  0.00000E+00  9.000E+00
      23     2     1     2     0     0  6.212114778E+00  2.196014986E+00 -4.488931136E+00  2.091236275E+01  1.933296566E+01  0.00000E+00  9.000E+00
      11     1     3     3     0     0  1.484740325E-01  1.026774694E+01 -1.459253428E+00  1.037198595E+01  5.109988832E-04  0.00000E+00  9.000E+00
     -11     1     3     3     0     0  6.063640745E+00 -8.071731953E+00 -3.029677708E+00  1.054037680E+01  5.109988971E-04  0.00000E+00  9.000E+00
      21     1     1     2   511   501 -6.212114778E+00 -2.196014986E+00 -6.837792254E+00  9.495696643E+00  6.072908784E-08  0.00000E+00  9.000E+00
</event>
<event>
      6  10011  1.00000E+00  2.58258E+01 -1.00000E+00  1.57664E-01
       2    -1     0     0   511     0  0.000000000E+00  0.000000000E+00  2.074458842E+01  2.074458842E+01  0.000000000E+00  0.00000E+00  9.000E+00
      -2    -1     0     0     0   501  0.000000000E+00  0.000000000E+00 -2.610509733E+02  2.610509733E+02  0.000000000E+00  0.00000E+00  9.000E+00
      23     2     1     2     0     0 -2.522248216E+01 -5.549802796E+00 -2.359601762E+02  2.556065670E+02  9.481844967E+01  0.00000E+00  9.000E+00
      11     1     3     3     0     0  2.701782132E+01  1.225178249E+01 -2.927034923E+01  4.167519870E+01  5.109979275E-04  0.00000E+00  9.000E+00
     -11     1     3     3     0     0 -5.224030347E+01 -1.780158528E+01 -2.066898270E+02  2.139313683E+02  5.109959245E-04  0.00000E+00  9.000E+00
      21     1     1     2   511   501  2.522248216E+01  5.549802796E+00 -4.346208689E+00  2.618899477E+01  6.268195308E-07  0.00000E+00  9.000E+00
</event>
<event>
      6  10011  1.00000E+00  1.17453E+01 -1.00000E+00  1.87959E-01
      21    -1     0     0   511   501  0.000000000E+00  0.000000000E+00  5.446159402E+00  5.446159402E+00  0.000000000E+00  0.00000E+00  9.000E+00
       2    -1     0     0   501     0  0.000000000E+00  0.000000000E+00 -6.299151537E+02  6.299151537E+02  0.000000000E+00  0.00000E+00  9.000E+00
      23     2     1     2     0     0 -4.948497511E+00  1.065198331E+01 -6.054644475E+02  6.130202035E+02  9.522930447E+01  0.00000E+00  9.000E+00
      11     1     3     3     0     0  3.492402263E+01  3.389538626E+01 -2.636877815E+02  2.681414378E+02  5.110448783E-04  0.00000E+00  9.000E+00
     -11     1     3     3     0     0 -3.987252014E+01 -2.324340295E+01 -3.417766659E+02  3.448787657E+02  5.110327194E-04  0.00000E+00  9.000E+00
       2     1     1     2   511     0  4.948497511E+00 -1.065198331E+01 -1.900454683E+01  2.234110955E+01  3.379148385E-07  0.00000E+00  9.000E+00
</event>
<event>
      6  10011  1.00000E+00  6.22886E+00 -1.00000E+00  2.22900E-01
       2    -1     0     0   511     0  0.000000000E+00  0.000000000E+00  1.764157326E+01  1.764157326E+01  0.000000000E+00  0.00000E+00  9.000E+00
      -2    -1     0     0     0   501  0.000000000E+00  0.000000000E+00 -1.437314429E+02  1.437314429E+02  0.000000000E+00  0.00000E+00  9.000E+00
      23     2     1     2     0     0 -3.359050411E+00  5.245525263E+00 -1.217950236E+02  1.538070094E+02  9.372176706E+01  0.00000E+00  9.000E+00
      11     1     3     3     0     0  9.064762978E+00  2.322702289E+01  4.755811238E+00  2.538271580E+01  5.109982632E-04  0.00000E+00  9.000E+00
     -11     1     3     3     0     0 -1.242381339E+01 -1.798149763E+01 -1.265508348E+02  1.284242936E+02  5.109987481E-04  0.00000E+00  9.000E+00
      21     1     1     2   511   501  3.359050411E+00 -5.245525263E+00 -4.294845995E+00  7.566006679E+00  9.236541590E-08  0.00000E+00  9.000E+00
</event>
<event>
      6  10011  1.00000E+00  1.08441E+01 -1.00000E+00  1.91719E-01
      -3    -1     0     0     0   511  0.000000000E+00  0.000000000E+00  7.272696121E+01  7.272696121E+01  0.000000000E+00  0.00000E+00  9.000E+00
       3    -1     0     0   501     0  0.000000000E+00  0.000000000E+00 -4.075309871E+00  4.075309871E+00  0.000000000E+00  0.00000E+00  9.000E+00
      23     2     1     2     0     0 -1.067734064E+01 -1.894591268E+00  4.532210218E+01  5.107557399E+01  2.090517240E+01  0.00000E+00  9.000E+00
      11     1     3     3     0     0 -7.769476678E+00 -1.129046180E+01  2.567161307E+01  2.910104832E+01  5.109988937E-04  0.00000E+00  9.000E+00
     -11     1     3     3     0     0 -2.907863966E+00  9.395870529E+00  1.965048912E+01  2.197452568E+01  5.109989230E-04  0.00000E+00  9.000E+00
      21     1     1     2   501   511  1.067734064E+01  1.894591268E+00  2.332954915E+01  2.572669709E+01  2.617264997E-07  0.00000E+00  9.000E+00
</event>
<event>
      6  10011  1.00000E+00  1.54843E+00 -1.00000E+00  4.24092E-01
      21    -1     0     0   511   501  0.000000000E+00  0.000000000E+00  9.400452742E+00  9.400452742E+00  0.000000000E+00  0.00000E+00  9.000E+00
       2    -1     0     0   501     0  0.000000000E+00  0.000000000E+00 -7.030045951E+02  7.030045951E+02  0.000000000E+00  0.00000E+00  9.000E+00
      23     2     1     2     0     0  6.777498722E-01  1.392230119E+00 -6.997660418E+02  7.060515720E+02  9.398888956E+01  0.00000E+00  9.000E+00
      11     1     3     3     0     0  2.880602753E+01 -3.576112170E+01 -4.098194950E+02  4.123841213E+02  5.109719133E-04  0.00000E+00  9.000E+00
     -11     1     3     3     0     0 -2.812827766E+01  3.715335181E+01 -2.899465468E+02  2.936674507E+02  5.109899696E-04  0.00000E+00  9.000E+00
       2     1     1     2   511     0 -6.777498722E-01 -1.392230119E+00  6.161899500E+00  6.353475824E+00  4.682987741E-07  0.00000E+00  9.000E+00
</event>
<event>
      6  10011  1.00000E+00  3.10514E+01 -1.00000E+00  1.51973E-01
      -1    -1     0     0     0   501  0.000000000E+00  0.000000000E+00  2.528417207E+02  2.528417207E+02  0.000000000E+00  0.00000E+00  9.000E+00
      21    -1     0     0   501   511  0.000000000E+00  0.000000000E+00 -2.379739413E+01  2.379739413E+01  0.000000000E+00  0.00000E+00  9.000E+00
      23     2     1     2     0     0 -3.093977198E+01 -2.630287845E+00  2.250575489E+02  2.453328486E+02  9.259113569E+01  0.00000E+00  9.000E+00
      11     1     3     3     0     0 -5.635349718E+01  2.245446264E+01  1.601018369E+02  1.712089884E+02  5.109998996E-04  0.00000E+00  9.000E+00
     -11     1     3     3     0     0  2.541372519E+01 -2.508475048E+01  6.495571200E+01  7.412386024E+01  5.109990118E-04  0.00000E+00  9.000E+00
      -1     1     1     2     0   511  3.093977198E+01  2.630287845E+00  3.986777666E+00  3.130626616E+01  2.246553912E-07  0.00000E+00  9.000E+00
</event>
<event>
      5  10011  1.00000E+00  8.94427E-01 -1.00000E+00  7.41466E-01
       2    -1     0     0   501     0  0.000000000E+00  0.000000000E+00  3.022079153E+02  3.022079153E+02  0.000000000E+00  0.00000E+00  9.000E+00
      -2    -1     0     0     0   501  0.000000000E+00  0.000000000E+00 -2.267983550E-01  2.267983550E-01  0.000000000E+00  0.00000E+00  9.000E+00
      23     2     1     2     0     0  0.000000000E+00  0.000000000E+00  3.019811169E+02  3.024347136E+02  1.655780880E+01  0.00000E+00  9.000E+00
      11     1     3     3     0     0 -1.097129890E+00 -6.908031609E+00  7.009395797E+01  7.044208642E+01  5.109980215E-04  0.00000E+00  9.000E+00
     -11     1     3     3     0     0  1.097129890E+00  6.908031609E+00  2.318871590E+02  2.319926272E+02  5.109769820E-04  0.00000E+00  9.000E+00
</event>
<event>
      6  10011  1.00000E+00  2.03345E+00 -1.00000E+00  3.59532E-01
      21    -1     0     0   501   511  0.000000000E+00  0.000000000E+00  1.804663075E+01  1.804663075E+01  0.000000000E+00  0.00000E+00  9.000E+00
      -3    -1     0     0     0   501  0.000000000E+00  0.000000000E+00 -4.089646280E+02  4.089646280E+02  0.000000000E+00  0.00000E+00  9.000E+00
      23     2     1     2     0     0 -1.365188655E-01 -2.028865092E+00 -4.038668981E+02  4.139036669E+02  9.057394311E+01  0.00000E+00  9.000E+00
      11     1     3     3     0     0  4.175616143E+01 -8.260469806E+00 -2.744869032E+02  2.777676591E+02  5.110255518E-04  0.00000E+00  9.000E+00
     -11     1     3     3     0     0 -4.189268029E+01  6.231604714E+00 -1.293799949E+02  1.361360079E+02  5.109920728E-04  0.00000E+00  9.000E+00
      -3     1     1     2     0   511  1.365188655E-01  2.028865092E+00  1.294890084E+01  1.310759185E+01  5.603064481E-07  0.00000E+00  9.000E+00
</event>
<event>
      6  10011  1.00000E+00  3.75318E+00 -1.00000E+00  2.70048E-01
      21    -1     0     0   511   501  0.000000000E+00  0.000000000E+00  2.363224556E+01  2.363224556E+01  0.000000000E+00  0.00000E+00  9.000E+00
       1    -1     0     0   501     0  0.000000000E+00  0.000000000E+00 -4.940116124E+02  4.940116124E+02  0.000000000E+00  0.00000E+00  9.000E+00
      23     2     1     2     0     0 -3.106901645E+00  2.105595385E+00 -4.896081118E+02  4.980522525E+02  9.124613228E+01  0.00000E+00  9.000E+00
      11     1     3     3     0     0 -3.359375663E+01 -1.184166642E+01 -8.642293141E+01  9.347560442E+01  5.109985725E-04  0.00000E+00  9.000E+00
     -11     1     3     3     0     0  3.048685499E+01  1.394726180E+01 -4.031851804E+02  4.045766481E+02  5.110091376E-04  0.00000E+00  9.000E+00
       1     1     1     2   511     0  3.106901645E+00 -2.105595385E+00  1.922874502E+01  1.959160547E+01  4.891633852E-07  0.00000E+00  9.000E+00
</event>
<event>
      6  10011  1.00000E+00  1.52958E+01 -1.00000E+00  1.76541E-01
       4    -1     0     0   511     0  0.000000000E+00  0.000000000E+00  1.035530849E+02  1.035530849E+02  0.000000000E+00  0.00000E+00  9.000E+00
      -4    -1     0     0     0   501  0.000000000E+00  0.000000000E+00 -3.002135825E+01  3.002135825E+01  0.000000000E+00  0.00000E+00  9.000E+00
      23     2     1     2     0     0  1.174412466E+01 -9.799866526E+00  5.011468648E+01  1.056044661E+02  9.168892847E+01  0.00000E+00  9.000E+00
      11     1     3     3     0     0  4.015509392E+01 -9.408474098E+00 -6.981189636E+00  4.182927158E+01  5.109981550E-04  0.00000E+00  9.000E+00
     -11     1     3     3     0     0 -2.841096925E+01 -3.913924278E-01  5.709587612E+01  6.377519449E+01  5.109995850E-04  0.00000E+00  9.000E+00
      21     1     1     2   511   501 -1.174412466E+01  9.799866526E+00  2.341704017E+01  2.796997709E+01  3.494632065E-08  0.00000E+00  9.000E+00
</event>
<event>
      6  10011  1.00000E+00  1.89138E+00 -1.00000E+00  3.74550E-01
       2    -1     0     0   501     0  0.000000000E+00  0.000000000E+00  2.503306532E-01  2.503306532E-01  0.000000000E+00  0.00000E+00  9.000E+00
      21    -1     0     0   511   501  0.000000000E+00  0.000000000E+00 -6.981849980E+02  6.981849980E+02  0.000000000E+00  0.00000E+00  9.000E+00
      23     2     1     2     0     0  1.891286707E+00  1.862639628E-02 -5.453117189E+02  5.458006612E+02  2.301985441E+01  0.00000E+00  9.000E+00
      11     1     3     3     0     0  1.440914628E+00 -1.144254392E+01 -2.487348664E+02  2.490020920E+02  5.110461818E-04  0.00000E+00  9.000E+00
     -11     1     3     3     0     0  4.503720795E-01  1.146117031E+01 -2.965768525E+02  2.967985692E+02  5.110820138E-04  0.00000E+00  9.000E+00
       2     1     1     2   511     0 -1.891286707E+00 -1.862639628E-02 -1.526229485E+02  1.526346675E+02  4.042583694E-07  0.00000E+00  9.000E+00
</event>
<event>
      6  10011  1.00000E+00  2.82693E+01 -1.00000E+00  1.54818E-01
       2    -1     0     0   501     0  0.000000000E+00  0.000000000E+00  1.036044906E+03  1.036044906E+03  0.000000000E+00  0.00000E+00  9.000E+00
      -2    -1     0     0     0   511  0.000000000E+00  0.000000000E+00 -7.120014667E+00  7.120014667E+00  0.000000000E+00  0.00000E+00  9.000E+00
      23     2     1     2     0     0  7.761480767E+00 -2.718294498E+01  9.924538396E+02  9.970206828E+02  9.103002276E+01  0.00000E+00  9.000E+00
      11     1     3     3     0     0 -4.865150428E+00  3.124995720E+01  2.206461500E+02  2.229012181E+02  5.109737837E-04  0.00000E+00  9.000E+00
     -11     1     3     3     0     0  1.262663119E+01 -5.843290217E+01  7.718076896E+02  7.741194647E+02  5.109409722E-04  0.00000E+00  9.000E+00
      21     1     1     2   501   511 -7.761480767E+00  2.718294498E+01  3.647105196E+01  4.614423813E+01  8.343985012E-07  0.00000E+00  9.000E+00
</event>
<event>
      6  10011  1.00000E+00  6.74951E+00 -1.00000E+00  2.17742E-01
       1    -1     0     0   501     0  0.000000000E+00  0.000000000E+00  5.399813069E+02  5.399813069E+02  0.000000000E+00  0.00000E+00  9.000E+00
      21    -1     0     0   511   501  0.000000000E+00  0.000000000E+00 -5.183303849E+00  5.183303849E+00  0.000000000E+00  0.00000E+00  9.000E+00
      23     2     1     2     0     0 -1.290722851E+00 -6.624950793E+00  5.274601596E+02  5.351946617E+02  9.040768752E+01  0.00000E+00  9.000E+00
      11     1     3     3     0     0 -2.640167396E+01 -1.597247334E+01  4.775592908E+02  4.785551635E+02  5.110553964E-04  0.00000E+00  9.000E+00
     -11     1     3     3     0     0  2.511095111E+01  9.347522549E+00  4.990086881E+01  5.663949816E+01  5.109995991E-04  0.00000E+00  9.000E+00
       1     1     1     2   511     0  1.290722851E+00  6.624950793E+00  7.337843470E+00  9.969949111E+00  2.928087654E-07  0.00000E+00  9.000E+00
</event>
<event>
      6  10011  1.00000E+00  8.77163E+00 -1.00000E+00  2.02513E-01
      -1    -1     0     0     0   501  0.000000000E+00  0.000000000E+00  1.465095224E+02  1.465095224E+02  0.000000000E+00  0.00000E+00  9.000E+00
       1    -1     0     0   511     0  0.000000000E+00  0.000000000E+00 -1.897249782E+01  1.897249782E+01  0.000000000E+00  0.00000E+00  9.000E+00
      23     2     1     2     0     0  3.001429574E+00 -8.242143187E+00  1.299685742E+02  1.563796064E+02  8.652057272E+01  0.00000E+00  9.000E+00
      11     1     3     3     0     0  1.726506501E+01 -4.173413804E+01  4.414727870E+01  6.315697083E+01  5.109992871E-04  0.00000E+00  9.000E+00
     -11     1     3     3     0     0 -1.426363544E+01  3.349199485E+01  8.582129554E+01  9.322263557E+01  5.109998544E-04  0.00000E+00  9.000E+00
      21     1     1     2   511   501 -3.001429574E+00  8.242143187E+00 -2.431549653E+00  9.102413829E+00  4.021437505E-08  0.00000E+00  9.000E+00
</event>
<event>
      6  10011  1.00000E+00  3.54583E+01 -1.00000E+00  1.48130E-01
       4    -1     0     0   501     0  0.000000000E+00  0.000000000E+00  1.361276247E+02  1.361276247E+02  0.000000000E+00  0.00000E+00  9.000E+00
      21    -1     0     0   511   501  0.000000000E+00  0.000000000E+00 -3.752844248E+01  3.752844248E+01  0.000000000E+00  0.00000E+00  9.000E+00
      23     2     1     2     0     0  2.758532609E+01  2.227873285E+01  9.612641365E+01  1.381116339E+02  9.261341077E+01  0.00000E+00  9.000E+00
      11     1     3     3     0     0  5.379902361E+01  1.404104523E+01  2.332154685E+01  6.029411614E+01  5.109984590E-04  0.00000E+00  9.000E+00
     -11     1     3     3     0     0 -2.621369753E+01  8.237687630E+00  7.280486680E+01  7.781751773E+01  5.110001073E-04  0.00000E+00  9.000E+00
       4     1     1     2   511     0 -2.758532609E+01 -2.227873285E+01  2.472768538E+00  3.554443328E+01  2.706826219E-07  0.00000E+00  9.000E+00
</event>
<event>
      6  10011  1.00000E+00  4.93623E+00 -1.00000E+00  2.43562E-01
      21    -1     0     0   511   501  0.000000000E+00  0.000000000E+00  1.287363565E+00  1.287363565E+00  0.000000000E+00  0.00000E+00  9.000E+00
       2    -1     0     0   501     0  0.000000000E+00  0.000000000E+00 -1.703718852E+02  1.703718852E+02  0.000000000E+00  0.00000E+00  9.000E+00
      23     2     1     2     0     0 -4.884879735E+00  7.101484542E-01 -1.620793662E+02  1.630896184E+02  1.743950518E+01  0.00000E+00  9.000E+00
      11     1     3     3     0     0 -9.390148662E+00 -4.596454116E+00 -7.389291503E+01  7.462884948E+01  5.110011467E-04  0.00000E+00  9.000E+00
     -11     1     3     3     0     0  4.505268927E+00  5.306602571E+00 -8.818645115E+01  8.846076897E+01  5.109998153E-04  0.00000E+00  9.000E+00
       2     1     1     2   511     0  4.884879735E+00 -7.101484542E-01 -7.005155423E+00  8.569630293E+00  2.757847278E-07  0.00000E+00  9.000E+00
</event>
<event>
      6  10011  1.00000E+00  2.31620E+01 -1.00000E+00  1.61237E-01
      21    -1     0     0   511   501  0.000000000E+00  0.000000000E+00  4.936746429E+00  4.936746429E+00  0.000000000E+00  0.00000E+00  9.000E+00
       1    -1     0     0   501     0  0.000000000E+00  0.000000000E+00 -1.174399518E+03  1.174399518E+03  0.000000000E+00  0.00000E+00  9.000E+00
      23     2     1     2     0     0 -1.652062447E+01 -1.623408694E+01 -1.106389338E+03  1.112144489E+03  1.105962092E+02  0.00000E+00  9.000E+00
      11     1     3     3     0     0 -1.382477508E+01 -2.274802877E+01 -1.104533945E+03  1.104854666E+03  5.119223885E-04  0.00000E+00  9.000E+00
     -11     1     3     3     0     0 -2.695849396E+00  6.513941828E+00 -1.855392942E+00  7.289823409E+00  5.109943853E-04  0.00000E+00  9.000E+00
       1     1     1     2   511     0  1.652062447E+01  1.623408694E+01 -6.307343420E+01  6.719177564E+01  1.453073346E-06  0.00000E+00  9.000E+00
</event>
<event>
      6  10011  1.00000E+00  6.85283E+00 -1.00000E+00  2.16794E-01
      21    -1     0     0   511   501  0.000000000E+00  0.000000000E+00  1.025572580E+01  1.025572580E+01  0.000000000E+00  0.00000E+00  9.000E+00
       3    -1     0     0   501     0  0.000000000E+00  0.000000000E+00 -3.699796763E+01  3.699796763E+01  0.000000000E+00  0.00000E+00  9.000E+00
      23     2     1     2     0     0 -3.659488525E+00 -5.793911106E+00 -2.698184299E+01  4.039667725E+01  2.927303229E+01  0.00000E+00  9.000E+00
      11     1     3     3     0     0  3.346879208E+00 -1.195521456E+01 -6.176203003E-01  1.243021363E+01  5.109989019E-04  0.00000E+00  9.000E+00
     -11     1     3     3     0     0 -7.006367733E+00  6.161303458E+00 -2.636422269E+01  2.796646362E+01  5.109989200E-04  0.00000E+00  9.000E+00
       3     1     1     2   511     0  3.659488525E+00  5.793911106E+00  2.396011722E-01  6.857016180E+00  9.985661223E-08  0.00000E+00  9.000E+00
</event>
<event>
      6  10011  1.00000E+00  2.00861E+01 -1.00000E+00  1.66174E-01
       2    -1     0     0   501     0  0.000000000E+00  0.000000000E+00  1.629962204E+03  1.629962204E+03  0.000000000E+00  0.00000E+00  9.000E+00
      -2    -1     0     0     0   511  0.000000000E+00  0.000000000E+00 -2.237739566E+00  2.237739566E+00  0.000000000E+00  0.00000E+00  9.000E+00
      23     2     1     2     0     0 -2.007457534E+01 -6.793011824E-01  1.376095658E+03  1.379770734E+03  9.861321495E+01  0.00000E+00  9.000E+00
      11     1     3     3     0     0 -2.923024353E+01  3.937137696E+01  1.042836740E+03  1.043988974E+03  5.110061620E-04  0.00000E+00  9.000E+00
     -11     1     3     3     0     0  9.155668188E+00 -4.005067815E+01  3.332589184E+02  3.357817592E+02  5.108729368E-04  0.00000E+00  9.000E+00
      21     1     1     2   501   511  2.007457534E+01  6.793011824E-01  2.516288055E+02  2.524292095E+02  1.148066538E-06  0.00000E+00  9.000E+00
</event>
<event>
      6  10011  1.00000E+00  1.57199E+01 -1.00000E+00  1.75440E-01
       2    -1     0     0   501     0  0.000000000E+00  0.000000000E+00  3.630972012E+02  3.630972012E+02  0.000000000E+00  0.00000E+00  9.000E+00
      21    -1     0     0   511   501  0.000000000E+00  0.000000000E+00 -8.364046173E+00  8.364046173E+00  0.000000000E+00  0.00000E+00  9.000E+00
      23     2     1     2     0     0  1.613334456E+00 -1.563684545E+01  3.115264185E+02  3.254836891E+02  9.297208540E+01  0.00000E+00  9.000E+00
      11     1     3     3     0     0  1.420317147E+01 -5.034370944E+01  1.279147472E+02  1.381969671E+02  5.110004558E-04  0.00000E+00  9.000E+00
     -11     1     3     3     0     0 -1.258983702E+01  3.470686399E+01  1.836116713E+02  1.872867220E+02  5.109943045E-04  0.00000E+00  9.000E+00
       2     1     1     2   511     0 -1.613334456E+00  1.563684545E+01  4.320673657E+01  4.597755832E+01  8.416848056E-07  0.00000E+00  9.000E+00
</event>
<event>
      6  10011  1.00000E+00  3.88619E+00 -1.00000E+00  2.66348E-01
      -2    -1     0     0     0   511  0.000000000E+00  0.000000000E+00  2.310784837E+00  2.310784837E+00  0.000000000E+00  0.00000E+00  9.000E+00
       2    -1     0     0   501     0  0.000000000E+00  0.000000000E+00 -1.007407004E+02  1.007407004E+02  0.000000000E+00  0.00000E+00  9.000E+00
      23     2     1     2     0     0  1.175048064E+00 -3.704291103E+00 -9.617775698E+01  9.855985648E+01  2.118447217E+01  0.00000E+00  9.000E+00
      11     1     3     3     0     0 -2.607014571E+00 -2.626352621E+00 -9.398373215E+01  9.405655832E+01  5.109964885E-04  0.00000E+00  9.000E+00
     -11     1     3     3     0     0  3.782062635E+00 -1.077938481E+00 -2.194024830E+00  4.503298165E+00  5.109988572E-04  0.00000E+00  9.000E+00
      21     1     1     2   501   511 -1.175048064E+00  3.704291103E+00 -2.252158565E+00  4.491628739E+00  9.564778059E-08  0.00000E+00  9.000E+00
</event>
<event>
      6  10011  1.00000E+00  2.49025E+01 -1.00000E+00  1.58840E-01
       2    -1     0     0   501     0  0.000000000E+00  0.000000000E+00  3.199851989E+02  3.199851989E+02  0.000000000E+00  0.00000E+00  9.000E+00
      21    -1     0     0   511   501  0.000000000E+00  0.000000000E+00 -1.578760630E+01  1.578760630E+01  0.000000000E+00  0.00000E+00  9.000E+00
      23     2     1     2     0     0 -1.380377585E+01 -2.072656284E+01  2.956208953E+02  3.094347268E+02  8.796591269E+01  0.00000E+00  9.000E+00
      11     1     3     3     0     0 -3.877353049E+01 -1.082532018E+01  5.979144051E+01  7.208044521E+01  5.110026651E-04  0.00000E+00  9.000E+00
     -11     1     3     3     0     0  2.496975465E+01 -9.901242664E+00  2.358294548E+02  2.373542816E+02  5.110035757E-04  0.00000E+00  9.000E+00
       2     1     1     2   511     0  1.380377585E+01  2.072656284E+01  8.576697276E+00  2.633807835E+01  4.833985841E-07  0.00000E+00  9.000E+00
</event>
<event>
      6  10011  1.00000E+00  8.84213E+00 -1.00000E+00  2.02083E-01
      -2    -1     0     0     0   501  0.000000000E+00  0.000000000E+00  1.778990831E+02  1.778990831E+02  0.000000000E+00  0.00000E+00  9.000E+00
      21    -1     0     0   501   511  0.000000000E+00  0.000000000E+00 -3.695432681E+00  3.695432681E+00  0.000000000E+00  0.00000E+00  9.000E+00
      23     2     1     2     0     0 -5.797551164E+00 -6.676202394E+00  1.352124450E+02  1.416133029E+02  4.115506065E+01  0.00000E+00  9.000E+00
      11     1     3     3     0     0 -9.784056394E+00 -4.049812837E+00  1.363052278E+02  1.367159240E+02  5.110032037E-04  0.00000E+00  9.000E+00
     -11     1     3     3     0     0  3.986505230E+00 -2.626389557E+00 -1.092782835E+00  4.897378956E+00  5.109989141E-04  0.00000E+00  9.000E+00
      -2     1     1     2     0   511  5.797551164E+00  6.676202394E+00  3.899120546E+01  3.998121285E+01  3.732733443E-07  0.00000E+00  9.000E+00
</event>
<event>
      6  10011  1.00000E+00  5.90377E+00 -1.00000E+00  2.26489E-01
       3    -1     0     0   501     0  0.000000000E+00  0.000000000E+00  1.318940969E+01  1.318940969E+01  0.000000000E+00  0.00000E+00  9.000E+00
      21    -1     0     0   511   501  0.000000000E+00  0.000000000E+00 -3.627642088E+01  3.627642088E+01  0.000000000E+00  0.00000E+00  9.000E+00
      23     2     1     2     0     0 -4.872051754E+00  3.334301405E+00 -7.435241796E-01  2.635553274E+01  2.567502334E+01  0.00000E+00  9.000E+00
      11     1     3     3     0     0 -1.017104391E+01  8.470063302E+00  7.563146038E+00  1.524445095E+01  5.109989473E-04  0.00000E+00  9.000E+00
     -11     1     3     3     0     0  5.298992155E+00 -5.135761897E+00 -8.306670218E+00  1.111108179E+01  5.109989612E-04  0.00000E+00  9.000E+00
       3     1     1     2   511     0  4.872051754E+00 -3.334301405E+00 -2.234348701E+01  2.311029784E+01  1.968420269E-07  0.00000E+00  9.000E+00
</event>
<event>
      6  10011  1.00000E+00  3.74225E+00 -1.00000E+00  2.70363E-01
      21    -1     0     0   511   501  0.000000000E+00  0.000000000E+00  6.829773755E+00  6.829773755E+00  0.000000000E+00  0.00000E+00  9.000E+00
       3    -1     0     0   501     0  0.000000000E+00  0.000000000E+00 -2.622220714E+01  2.622220714E+01  0.000000000E+00  0.00000E+00  9.000E+00
      23     2     1     2     0     0 -3.726337057E+00  3.447801645E-01 -2.098483705E+01  2.898501511E+01  1.964085675E+01  0.00000E+00  9.000E+00
      11     1     3     3     0     0 -7.121100027E+00  5.679126847E+00 -2.074614757E+01  2.265756357E+01  5.109988954E-04  0.00000E+00  9.000E+00
     -11     1     3     3     0     0  3.394762970E+00 -5.334346683E+00 -2.386894746E-01  6.327451547E+00  5.109988949E-04  0.00000E+00  9.000E+00
       3     1     1     2   511     0  3.726337057E+00 -3.447801645E-01  1.592403665E+00  4.066965780E+00  3.298972781E-08  0.00000E+00  9.000E+00
</event>
<event>
      6  10011  1.00000E+00  5.70134E+00 -1.00000E+00  2.28891E-01
       1    -1     0     0   501     0  0.000000000E+00  0.000000000E+00  1.426318328E+02  1.426318328E+02  0.000000000E+00  0.00000E+00  9.000E+00
      -1    -1     0     0     0   511  0.000000000E+00  0.000000000E+00 -1.588942193E+00  1.588942193E+00  0.000000000E+00  0.00000E+00  9.000E+00
      23     2     1     2     0     0  6.877123744E-01 -5.659708580E+00  1.315684767E+02  1.331632089E+02  1.974008320E+01  0.00000E+00  9.000E+00
      11     1     3     3     0     0  9.185311483E+00 -7.374923240E+00  6.926474765E+01  7.025926777E+01  5.109975970E-04  0.00000E+00  9.000E+00
     -11     1     3     3     0     0 -8.497599109E+00  1.715214660E+00  6.230372908E+01  6.290394113E+01  5.109975325E-04  0.00000E+00  9.000E+00
      21     1     1     2   501   511 -6.877123744E-01  5.659708580E+00  9.474413826E+00  1.105756605E+01  5.842889526E-08  0.00000E+00  9.000E+00
</event>
<event>
      6  10011  1.00000E+00  2.70608E+00 -1.00000E+00  3.10999E-01
      21    -1     0     0   511   501  0.000000000E+00  0.000000000E+00  1.129841128E+01  1.129841128E+01  0.000000000E+00  0.00000E+00  9.000E+00
       1    -1     0     0   501     0  0.000000000E+00  0.000000000E+00 -2.184951986E+01  2.184951986E+01  0.000000000E+00  0.00000E+00  9.000E+00
      23     2     1     2     0     0 -2.459704332E+00 -1.128157808E+00 -1.803477519E+01  2.519003246E+01  1.737704618E+01  0.00000E+00  9.000E+00
      11     1     3     3     0     0 -2.162654952E+00  2.533355760E+00  2.603311946E+00  4.227552625E+00  5.109988778E-04  0.00000E+00  9.000E+00
     -11     1     3     3     0     0 -2.970493793E-01 -3.661513568E+00 -2.063808714E+01  2.096247984E+01  5.109988451E-04  0.00000E+00  9.000E+00
       1     1     1     2   511     0  2.459704332E+00  1.128157808E+00  7.483666610E+00  7.957898678E+00  1.406389600E-07  0.00000E+00  9.000E+00
</event>
<event>
      6  10011  1.00000E+00  2.94387E+00 -1.00000E+00  2.99237E-01
      -2    -1     0     0     0   501  0.000000000E+00  0.000000000E+00  1.280943217E+01  1.280943217E+01  0.000000000E+00  0.00000E+00  9.000E+00
      21    -1     0     0   501   511  0.000000000E+00  0.000000000E+00 -9.873041646E+00  9.873041646E+00  0.000000000E+00  0.00000E+00  9.000E+00
      23     2     1     2     0     0  2.941477878E+00 -1.187622521E-01  6.517457711E+00  1.804669569E+01  1.656923577E+01  0.00000E+00  9.000E+00
      11     1     3     3     0     0 -2.009176298E+00 -3.549186328E+00  1.020134421E+01  1.098639782E+01  5.109988874E-04  0.00000E+00  9.000E+00
     -11     1     3     3     0     0  4.950654176E+00  3.430424076E+00 -3.683886501E+00  7.060297877E+00  5.109989374E-04  0.00000E+00  9.000E+00
      -2     1     1     2     0   511 -2.941477878E+00  1.187622521E-01 -3.581067189E+00  4.635778121E+00  3.953461587E-08  0.00000E+00  9.000E+00
</event>
<event>
      6  10011  1.00000E+00  1.90376E+00 -1.00000E+00  3.73142E-01
      -2    -1     0     0     0   501  0.000000000E+00  0.000000000E+00  9.976668841E-02  9.976668841E-02  0.000000000E+00  0.00000E+00  9.000E+00
       2    -1     0     0   511     0  0.000000000E+00  0.000000000E+00 -1.046638799E+03  1.046638799E+03  0.000000000E+00  0.00000E+00  9.000E+00
      23     2     1     2     0     0 -6.867674511E-01  1.775566878E+00 -8.196695503E+02  8.198610962E+02  1.761877146E+01  0.00000E+00  9.000E+00
      11     1     3     3     0     0  3.888973862E+00  8.482949988E+00 -5.085525635E+02  5.086381763E+02  5.108601548E-04  0.00000E+00  9.000E+00
     -11     1     3     3     0     0 -4.575741313E+00 -6.707383110E+00 -3.111169868E+02  3.112229199E+02  5.109742356E-04  0.00000E+00  9.000E+00
      21     1     1     2   511   501  6.867674511E-01 -1.775566878E+00 -2.268694823E+02  2.268774698E+02  1.171045465E-06  0.00000E+00  9.000E+00
</event>
<event>
      6  10011  1.00000E+00  7.97770E+00 -1.00000E+00  2.07763E-01
       4    -1     0     0   501     0  0.000000000E+00  0.000000000E+00  8.564776955E+01  8.564776955E+01  0.000000000E+00  0.00000E+00  9.000E+00
      21    -1     0     0   511   501  0.000000000E+00  0.000000000E+00 -3.841041992E+00  3.841041992E+00  0.000000000E+00  0.00000E+00  9.000E+00
      23     2     1     2     0     0  7.125007209E+00 -3.588593100E+00  7.821737793E+01  8.074083127E+01  1.837062587E+01  0.00000E+00  9.000E+00
      11     1     3     3     0     0 -5.258020956E+00  2.207884671E+00  1.467487144E+01  1.574399540E+01  5.109986104E-04  0.00000E+00  9.000E+00
     -11     1     3     3     0     0  1.238302816E+01 -5.796477771E+00  6.354250649E+01  6.499683586E+01  5.109989503E-04  0.00000E+00  9.000E+00
       4     1     1     2   511     0 -7.125007209E+00  3.588593100E+00  3.589349625E+00  8.747980275E+00  1.885784485E-08  0.00000E+00  9.000E+00
</event>
<event>
      6  10011  1.00000E+00  2.14298E+01 -1.00000E+00  1.63892E-01
      21    -1     0     0   511   501  0.000000000E+00  0.000000000E+00  1.843918248E+02  1.843918248E+02  0.000000000E+00  0.00000E+00  9.000E+00
       1    -1     0     0   501     0  0.000000000E+00  0.000000000E+00 -6.165320334E+01  6.165320334E+01  0.000000000E+00  0.00000E+00  9.000E+00
      23     2     1     2     0     0 -4.469837593E+00 -2.095843415E+01 -2.369807553E+01  9.804860373E+01  9.269678797E+01  0.00000E+00  9.000E+00
      11     1     3     3     0     0  4.559162138E+00 -3.981433009E+01 -5.023785174E+01  6.426358679E+01  5.109990057E-04  0.00000E+00  9.000E+00
     -11     1     3     3     0     0 -9.028999732E+00  1.885589594E+01  2.653977621E+01  3.378501693E+01  5.109985972E-04  0.00000E+00  9.000E+00
       1     1     1     2   511     0  4.469837593E+00  2.095843415E+01  1.464366970E+02  1.479964244E+02  2.026996144E-06  0.00000E+00  9.000E+00
</event>
<event>
      6  10011  1.00000E+00  2.43828E+00 -1.00000E+00  3.26994E-01
      21    -1     0     0   511   501  0.000000000E+00  0.000000000E+00  2.128725107E+02  2.128725107E+02  0.000000000E+00  0.00000E+00  9.000E+00
       1    -1     0     0   501     0  0.000000000E+00  0.000000000E+00 -8.851972323E+00  8.851972323E+00  0.000000000E+00  0.00000E+00  9.000E+00
      23     2     1     2     0     0  5.056792619E-01 -2.385267094E+00  2.007172699E+02  2.176187805E+02  8.405097250E+01  0.00000E+00  9.000E+00
      11     1     3     3     0     0 -9.963633350E+00 -1.495917499E+01  1.837721147E+00  1.806732202E+01  5.109985782E-04  0.00000E+00  9.000E+00
     -11     1     3     3     0     0  1.046931261E+01  1.257390789E+01  1.988795488E+02  1.995514585E+02  5.109915026E-04  0.00000E+00  9.000E+00
       1     1     1     2   511     0 -5.056792619E-01  2.385267094E+00  3.303268484E+00  4.105702535E+00  3.309800410E-08  0.00000E+00  9.000E+00
</event>
<event>
      6  10011  1.00000E+00  1.59752E+00 -1.00000E+00  4.15447E-01
       2    -1     0     0   501     0  0.000000000E+00  0.000000000E+00  4.158181282E+02  4.158181282E+02  0.000000000E+00  0.00000E+00  9.000E+00
      21    -1     0     0   511   501  0.000000000E+00  0.000000000E+00 -3.862668692E+01  3.862668692E+01  0.000000000E+00  0.00000E+00  9.000E+00
      23     2     1     2     0     0 -9.827852981E-01 -1.259449614E+00  4.098958540E+02  4.217014083E+02  9.907025082E+01  0.00000E+00  9.000E+00
      11     1     3     3     0     0  2.382287748E+01 -4.091723170E+01  2.719390676E+02  2.760300814E+02  5.110160412E-04  0.00000E+00  9.000E+00
     -11     1     3     3     0     0 -2.480566278E+01  3.965778208E+01  1.379567863E+02  1.456713269E+02  5.109985768E-04  0.00000E+00  9.000E+00
       2     1     1     2   511     0  9.827852981E-01  1.259449614E+00 -3.270441268E+01  3.274340680E+01  9.508178632E-07  0.00000E+00  9.000E+00
</event>
<event>
      6  10011  1.00000E+00  1.78153E+01 -1.00000E+00  1.70580E-01
      21    -1     0     0   501   511  0.000000000E+00  0.000000000E+00  9.729741747E+01  9.729741747E+01  0.000000000E+00  0.00000E+00  9.000E+00
      -1    -1     0     0     0   501  0.000000000E+00  0.000000000E+00 -1.862632442E+02  1.862632442E+02  0.000000000E+00  0.00000E+00  9.000E+00
      23     2     1     2     0     0 -1.755759798E+01  3.019437677E+00 -1.736822237E+02  1.969913013E+02  9.122867826E+01  0.00000E+00  9.000E+00
      11     1     3     3     0     0  1.876272578E+01 -7.859651054E+00 -1.185515733E+00  2.037693404E+01  5.109983584E-04  0.00000E+00  9.000E+00
     -11     1     3     3     0     0 -3.632032376E+01  1.087908873E+01 -1.724967079E+02  1.766143673E+02  5.109857876E-04  0.00000E+00  9.000E+00
      -1     1     1     2     0   511  1.755759798E+01 -3.019437677E+00  8.471639689E+01  8.656936036E+01  6.723710401E-07  0.00000E+00  9.000E+00
</event>
<event>
      6  10011  1.00000E+00  2.67239E+01 -1.00000E+00  1.56575E-01
      -3    -1     0     0     0   501  0.000000000E+00  0.000000000E+00  3.032812358E+02  3.032812358E+02  0.000000000E+00  0.00000E+00  9.000E+00
      21    -1     0     0   501   511  0.000000000E+00  0.000000000E+00 -1.371100201E+01  1.371100201E+01  0.000000000E+00  0.00000E+00  9.000E+00
      23     2     1     2     0     0 -2.303159949E+01  1.355396622E+01  2.594931752E+02  2.767579983E+02  9.243439329E+01  0.00000E+00  9.000E+00
      11     1     3     3     0     0 -2.319342363E+01 -3.267374218E+01  6.121906918E+01  7.316613123E+01  5.109985723E-04  0.00000E+00  9.000E+00
     -11     1     3     3     0     0  1.618241323E-01  4.622770841E+01  1.982741060E+02  2.035918671E+02  5.110126589E-04  0.00000E+00  9.000E+00
      -3     1     1     2     0   511  2.303159949E+01 -1.355396622E+01  3.007705851E+01  4.023423945E+01  2.026777045E-07  0.00000E+00  9.000E+00
</event>
<event>
      6  10011  1.00000E+00  1.02576E+01 -1.00000E+00  1.94431E-01
       2    -1     0     0   501     0  0.000000000E+00  0.000000000E+00  9.094319750E+02  9.094319750E+02  0.000000000E+00  0.00000E+00  9.000E+00
      21    -1     0     0   511   501  0.000000000E+00  0.000000000E+00 -5.668005508E+00  5.668005508E+00  0.000000000E+00  0.00000E+00  9.000E+00
      23     2     1     2     0     0  2.509426063E+00  9.945871691E+00  8.990895440E+02  9.038275435E+02  9.185315806E+01  0.00000E+00  9.000E+00
      11     1     3     3     0     0  3.481123127E+01 -7.765152510E+00  7.253034339E+02  7.261798611E+02  5.107845274E-04  0.00000E+00  9.000E+00
     -11     1     3     3     0     0 -3.230180521E+01  1.771102420E+01  1.737861101E+02  1.776476824E+02  5.109982709E-04  0.00000E+00  9.000E+00
       2     1     1     2   511     0 -2.509426063E+00 -9.945871691E+00  4.674425496E+00  1.127243703E+01  3.245655832E-07  0.00000E+00  9.000E+00
</event>
<event>
      6  10011  1.00000E+00  5.49745E+00 -1.00000E+00  2.31455E-01
      -2    -1     0     0     0   501  0.000000000E+00  0.000000000E+00  7.791412864E+02  7.791412864E+02  0.000000000E+00  0.00000E+00  9.000E+00
      21    -1     0     0   501   511  0.000000000E+00  0.000000000E+00 -2.799099807E-01  2.799099807E-01  0.000000000E+00  0.00000E+00  9.000E+00
      23     2     1     2     0     0 -3.815614202E+00 -3.957660333E+00  7.366491004E+02  7.368524493E+02  1.641380004E+01  0.00000E+00  9.000E+00
      11     1     3     3     0     0 -6.549179192E-02 -7.270093461E+00  1.449710698E+02  1.451532625E+02  5.109911307E-04  0.00000E+00  9.000E+00
     -11     1     3     3     0     0 -3.750122410E+00  3.312433128E+00  5.916780307E+02  5.916991868E+02  5.110477912E-04  0.00000E+00  9.000E+00
      -2     1     1     2     0   511  3.815614202E+00  3.957660333E+00  4.221227595E+01  4.256874708E+01  1.229278064E-06  0.00000E+00  9.000E+00
</event>
<event>
      6  10011  1.00000E+00  2.32783E+01 -1.00000E+00  1.61068E-01
       1    -1     0     0   501     0  0.000000000E+00  0.000000000E+00  6.005677348E+02  6.005677348E+02  0.000000000E+00  0.00000E+00  9.000E+00
      21    -1     0     0   511   501  0.000000000E+00  0.000000000E+00 -6.725100987E+00  6.725100987E+00  0.000000000E+00  0.00000E+00  9.000E+00
      23     2     1     2     0     0  1.942446758E+01 -1.282851345E+01  3.527238238E+02  3.650529521E+02  9.114648252E+01  0.00000E+00  9.000E+00
      11     1     3     3     0     0  4.150885894E+01  1.972085164E+01  2.644336274E+02  2.683971696E+02  5.109871468E-04  0.00000E+00  9.000E+00
     -11     1     3     3     0     0 -2.208439136E+01 -3.254936509E+01  8.829019641E+01  9.665578251E+01  5.110040315E-04  0.00000E+00  9.000E+00
       1     1     1     2   511     0 -1.942446758E+01  1.282851345E+01  2.411188100E+02  2.422398837E+02  2.843585120E-06  0.00000E+00  9.000E+00
</event>
<event>
      6  10011  1.00000E+00  4.04377E+00 -1.00000E+00  2.62254E-01
       2    -1     0     0   501     0  0.000000000E+00  0.000000000E+00  4.872198161E+00  4.872198161E+00  0.000000000E+00  0.00000E+00  9.000E+00
      21    -1     0     0   511   501  0.000000000E+00  0.000000000E+00 -5.407924303E+01  5.407924303E+01  0.000000000E+00  0.00000E+00  9.000E+00
      23     2     1     2     0     0 -7.623012180E-01 -3.971263393E+00 -1.176783950E+01  2.129448785E+01  1.728065769E+01  0.00000E+00  9.000E+00
      11     1     3     3     0     0 -6.360792381E+00 -1.557424178E+00  1.477579089E+00  6.713306935E+00  5.109989476E-04  0.00000E+00  9.000E+00
     -11     1     3     3     0     0  5.598491163E+00 -2.413839215E+00 -1.324541859E+01  1.458118091E+01  5.109989038E-04  0.00000E+00  9.000E+00
       2     1     1     2   511     0  7.623012180E-01  3.971263393E+00 -3.743920537E+01  3.765695334E+01  4.671935858E-07  0.00000E+00  9.000E+00
</event>
<event>
      6  10011  1.00000E+00  1.00396E+00 -1.00000E+00  6.48470E-01
       2    -1     0     0   511     0  0.000000000E+00  0.000000000E+00  3.145050237E+02  3.145050237E+02  0.000000000E+00  0.00000E+00  9.000E+00
      -2    -1     0     0     0   501  0.000000000E+00  0.000000000E+00 -7.233678017E-01  7.233678017E-01  0.000000000E+00  0.00000E+00  9.000E+00
      23     2     1     2     0     0  4.483817523E-01  8.982739897E-01  2.852211213E+02  2.866502167E+02  2.857010181E+01  0.00000E+00  9.000E+00
      11     1     3     3     0     0  2.978724214E+00 -9.467392930E+00  4.056409845E+01  4.176063230E+01  5.109982709E-04  0.00000E+00  9.000E+00
     -11     1     3     3     0     0 -2.530342462E+00  1.036566692E+01  2.446570229E+02  2.448895844E+02  5.110021782E-04  0.00000E+00  9.000E+00
      21     1     1     2   511   501 -4.483817523E-01 -8.982739897E-01  2.856053456E+01  2.857817483E+01  1.710391087E-07  0.00000E+00  9.000E+00
</event>
<event>
      6  10011  1.00000E+00  5.84009E+00 -1.00000E+00  2.27230E-01
      21    -1     0     0   501   511  0.000000000E+00  0.000000000E+00  2.442778570E+02  2.442778570E+02  0.000000000E+00  0.00000E+00  9.000E+00
      -1    -1     0     0     0   501  0.000000000E+00  0.000000000E+00 -1.533315254E+01  1.533315254E+01  0.000000000E+00  0.00000E+00  9.000E+00
      23     2     1     2     0     0  5.107784943E+00  2.831454184E+00  1.201991875E+02  1.507087870E+02  9.072589057E+01  0.00000E+00  9.000E+00
      11     1     3     3     0     0 -3.474349288E+01  1.164932851E+01  1.834250410E+01  4.097883123E+01  5.109993020E-04  0.00000E+00  9.000E+00
     -11     1     3     3     0     0  3.985127783E+01 -8.817874323E+00  1.018566834E+02  1.097299558E+02  5.109998987E-04  0.00000E+00  9.000E+00
      -1     1     1     2     0   511 -5.107784943E+00 -2.831454184E+00  1.087455170E+02  1.089022225E+02  4.969040156E-07  0.00000E+00  9.000E+00
</event>
<event>
      6  10011  1.00000E+00  4.56561E+00 -1.00000E+00  2.50534E-01
       2    -1     0     0   511     0  0.000000000E+00  0.000000000E+00  4.292892002E+01  4.292892002E+01  0.000000000E+00  0.00000E+00  9.000E+00
      -2    -1     0     0     0   501  0.000000000E+00  0.000000000E+00 -5.322836496E+01  5.322836496E+01  0.000000000E+00  0.00000E+00  9.000E+00
      23     2     1     2     0     0  3.615187370E+00  2.788414015E+00 -1.460582351E+01  8.988116127E+01  8.856888979E+01  0.00000E+00  9.000E+00
      11     1     3     3     0     0 -2.620450591E+01 -7.000467310E-01 -4.182196093E+01  4.935830843E+01  5.109988657E-04  0.00000E+00  9.000E+00
     -11     1     3     3     0     0  2.981969328E+01  3.488460746E+00  2.721613742E+01  4.052285284E+01  5.109996677E-04  0.00000E+00  9.000E+00
      21     1     1     2   511   501 -3.615187370E+00 -2.788414015E+00  4.306378562E+00  6.276123705E+00  1.005828381E-07  0.00000E+00  9.000E+00
</event>
<event>
      6  10011  1.00000E+00  3.21568E+01 -1.00000E+00  1.50941E-01
      -3    -1     0     0     0   511  0.000000000E+00  0.000000000E+00  9.659977225E+00  9.659977225E+00  0.000000000E+00  0.00000E+00  9.000E+00
       3    -1     0     0   501     0  0.000000000E+00  0.000000000E+00 -4.960073829E+02  4.960073829E+02  0.000000000E+00  0.00000E+00  9.000E+00
      23     2     1     2     0     0  1.489665802E+01  2.849820459E+01 -4.302384900E+02  4.409968993E+02  9.131839266E+01  0.00000E+00  9.000E+00
      11     1     3     3     0     0  1.114082307E+01  5.876388105E+01 -3.516128868E+02  3.566636144E+02  5.109832186E-04  0.00000E+00  9.000E+00
     -11     1     3     3     0     0  3.755834946E+00 -3.026567647E+01 -7.862560314E+01  8.433328487E+01  5.109938378E-04  0.00000E+00  9.000E+00
      21     1     1     2   501   511 -1.489665802E+01 -2.849820459E+01 -5.610891572E+01  6.467046086E+01  4.532011248E-07  0.00000E+00  9.000E+00
</event>
<event>
      6  10011  1.00000E+00  1.63756E+01 -1.00000E+00  1.73822E-01
      21    -1     0     0   511   501  0.000000000E+00  0.000000000E+00  5.364889320E+01  5.364889320E+01  0.000000000E+00  0.00000E+00  9.000E+00
       1    -1     0     0   501     0  0.000000000E+00  0.000000000E+00 -2.297437539E+01  2.297437539E+01  0.000000000E+00  0.00000E+00  9.000E+00
      23     2     1     2     0     0 -1.375073161E+01  8.892610185E+00  3.480186823E+01  5.973551690E+01  4.570558840E+01  0.00000E+00  9.000E+00
      11     1     3     3     0     0 -1.925622862E+01  5.166893492E+00  4.404664640E+01  4.834879718E+01  5.109989508E-04  0.00000E+00  9.000E+00
     -11     1     3     3     0     0  5.505497011E+00  3.725716693E+00 -9.244778172E+00  1.138671972E+01  5.109990381E-04  0.00000E+00  9.000E+00
       1     1     1     2   511     0  1.375073161E+01 -8.892610185E+00 -4.127350422E+00  1.688775169E+01  1.563956553E-07  0.00000E+00  9.000E+00
</event>
<event>
      5  10011  1.00000E+00  8.94427E-01 -1.00000E+00  5.90323E-01
      -2    -1     0     0     0   501  0.000000000E+00  0.000000000E+00  2.195342269E-01  2.195342269E-01  0.000000000E+00  0.00000E+00  9.000E+00
       2    -1     0     0   501     0  0.000000000E+00  0.000000000E+00 -3.175283319E+02  3.175283319E+02  0.000000000E+00  0.00000E+00  9.000E+00
      23     2     1     2     0     0  0.000000000E+00  0.000000000E+00 -3.173087977E+02  3.177478662E+02  1.669830373E+01  0.00000E+00  9.000E+00
      11     1     3     3     0     0  6.878487776E+00  4.703870652E+00 -1.487971494E+02  1.490303045E+02  5.109952987E-04  0.00000E+00  9.000E+00
     -11     1     3     3     0     0 -6.878487776E+00 -4.703870652E+00 -1.685116484E+02  1.687175617E+02  5.109902321E-04  0.00000E+00  9.000E+00
</event>
<event>
      6  10011  1.00000E+00  6.04599E+00 -1.00000E+00  2.24880E-01
      -2    -1     0     0     0   511  0.000000000E+00  0.000000000E+00  3.356491947E+00  3.356491947E+00  0.000000000E+00  0.00000E+00  9.000E+00
       2    -1     0     0   501     0  0.000000000E+00  0.000000000E+00 -8.560222839E+02  8.560222839E+02  0.000000000E+00  0.00000E+00  9.000E+00
      23     2     1     2     0     0  5.913891659E+00  1.256955383E+00 -8.431768234E+02  8.481273503E+02  9.130330138E+01  0.00000E+00  9.000E+00
      11     1     3     3     0     0  3.038302219E+01 -7.471645070E+00 -7.670842642E+02  7.677220994E+02  5.112246428E-04  0.00000E+00  9.000E+00
     -11     1     3     3     0     0 -2.446913053E+01  8.728600453E+00 -7.609255914E+01  8.040525090E+01  5.110016055E-04  0.00000E+00  9.000E+00
      21     1     1     2   501   511 -5.913891659E+00 -1.256955383E+00 -9.488968522E+00  1.125142547E+01  4.336404326E-08  0.00000E+00  9.000E+00
</event>
<event>
      6  10011  1.00000E+00  1.57444E+01 -1.00000E+00  1.75378E-01
      -1    -1     0     0     0   501  0.000000000E+00  0.000000000E+00  1.040118645E+03  1.040118645E+03  0.000000000E+00  0.00000E+00  9.000E+00
      21    -1     0     0   501   511  0.000000000E+00  0.000000000E+00 -1.269087304E+01  1.269087304E+01  0.000000000E+00  0.00000E+00  9.000E+00
      23     2     1     2     0     0  1.437367272E+01 -6.425345317E+00  1.032577131E+03  1.036244392E+03  8.566808072E+01  0.00000E+00  9.000E+00
      11     1     3     3     0     0  1.690000993E+01  3.662878916E+01  3.524057764E+02  3.547070760E+02  5.109816820E-04  0.00000E+00  9.000E+00
     -11     1     3     3     0     0 -2.526337212E+00 -4.305413447E+01  6.801713546E+02  6.815373156E+02  5.112835148E-04  0.00000E+00  9.000E+00
      -1     1     1     2     0   511 -1.437367272E+01  6.425345317E+00 -5.149358730E+00  1.656512678E+01  2.856838639E-07  0.00000E+00  9.000E+00
</event>
<event>
      6  10011  1.00000E+00  2.57050E+00 -1.00000E+00  3.18674E-01
      -1    -1     0     0     0   501  0.000000000E+00  0.000000000E+00  8.730037554E+00  8.730037554E+00  0.000000000E+00  0.00000E+00  9.000E+00
       1    -1     0     0   511     0  0.000000000E+00  0.000000000E+00 -2.518894560E+02  2.518894560E+02  0.000000000E+00  0.00000E+00  9.000E+00
      23     2     1     2     0     0 -1.201083507E+00 -2.272634774E+00 -2.289121440E+02  2.461421907E+02  9.043561729E+01  0.00000E+00  9.000E+00
      11     1     3     3     0     0  3.975309624E+01  1.064961324E+01 -1.577150983E+02  1.629962427E+02  5.110026649E-04  0.00000E+00  9.000E+00
     -11     1     3     3     0     0 -4.095417975E+01 -1.292224802E+01 -7.119704573E+01  8.314594791E+01  5.109975044E-04  0.00000E+00  9.000E+00
      21     1     1     2   511   501  1.201083507E+00  2.272634774E+00 -1.424727445E+01  1.447730291E+01  1.364188896E-07  0.00000E+00  9.000E+00
</event>
<event>
      6  10011  1.00000E+00  3.53906E+00 -1.00000E+00  2.76543E-01
      21    -1     0     0   511   501  0.000000000E+00  0.000000000E+00  3.716664326E+00  3.716664326E+00  0.000000000E+00  0.00000E+00  9.000E+00
       1    -1     0     0   501     0  0.000000000E+00  0.000000000E+00 -8.253309156E+02  8.253309156E+02  0.000000000E+00  0.00000E+00  9.000E+00
      23     2     1     2     0     0  9.291467257E-02 -3.537836938E+00 -8.208293038E+02  8.254225191E+02  8.688535070E+01  0.00000E+00  9.000E+00
      11     1     3     3     0     0  3.877584020E+01  2.585764645E-01 -5.958404273E+02  5.971008688E+02  5.109162458E-04  0.00000E+00  9.000E+00
     -11     1     3     3     0     0 -3.868292552E+01 -3.796413402E+00 -2.249888764E+02  2.283216503E+02  5.109812544E-04  0.00000E+00  9.000E+00
       1     1     1     2   511     0 -9.291467257E-02  3.537836938E+00 -7.849474745E-01  3.625060809E+00  2.469346529E-07  0.00000E+00  9.000E+00
</event>
<event>
      6  10011  1.00000E+00  7.64592E+00 -1.00000E+00  2.10207E-01
      21    -1     0     0   501   511  0.000000000E+00  0.000000000E+00  4.183215028E+01  4.183215028E+01  0.000000000E+00  0.00000E+00  9.000E+00
      -1    -1     0     0     0   501  0.000000000E+00  0.000000000E+00 -7.750337673E+00  7.750337673E+00  0.000000000E+00  0.00000E+00  9.000E+00
      23     2     1     2     0     0  6.790392948E+00  3.514359767E+00  4.575646844E+00  1.910177308E+01  1.689618389E+01  0.00000E+00  9.000E+00
      11     1     3     3     0     0  6.346535938E+00  1.852020646E-01 -5.550405617E+00  8.433256843E+00  5.109989249E-04  0.00000E+00  9.000E+00
     -11     1     3     3     0     0  4.438570098E-01  3.329157703E+00  1.012605246E+01  1.066851624E+01  5.109988634E-04  0.00000E+00  9.000E+00
      -1     1     1     2     0   511 -6.790392948E+00 -3.514359767E+00  2.950616576E+01  3.048071487E+01  3.102520527E-07  0.00000E+00  9.000E+00
</event>
<event>
      6  10011  1.00000E+00  4.83439E+00 -1.00000E+00  2.45384E-01
       4    -1     0     0   501     0  0.000000000E+00  0.000000000E+00  3.031536361E+00  3.031536361E+00  0.000000000E+00  0.00000E+00  9.000E+00
      21    -1     0     0   511   501  0.000000000E+00  0.000000000E+00 -7.977066948E+01  7.977066948E+01  0.000000000E+00  0.00000E+00  9.000E+00
      23     2     1     2     0     0  9.334221339E-01 -4.743426346E+00 -3.218566721E+01  3.798722292E+01  1.958929709E+01  0.00000E+00  9.000E+00
      11     1     3     3     0     0 -4.708419954E+00  3.777486267E+00 -2.398020463E+00  6.495315494E+00  5.109988677E-04  0.00000E+00  9.000E+00
     -11     1     3     3     0     0  5.641842088E+00 -8.520912613E+00 -2.978764675E+01  3.149190742E+01  5.109988461E-04  0.00000E+00  9.000E+00
       4     1     1     2   511     0 -9.334221339E-01  4.743426346E+00 -4.455346590E+01  4.481498292E+01  4.242253556E-07  0.00000E+00  9.000E+00
</event>
<event>
      6  10011  1.00000E+00  3.01016E+00 -1.00000E+00  2.96284E-01
      -2    -1     0     0     0   501  0.000000000E+00  0.000000000E+00  6.515476877E+00  6.515476877E+00  0.000000000E+00  0.00000E+00  9.000E+00
       2    -1     0     0   511     0  0.000000000E+00  0.000000000E+00 -1.831044468E+01  1.831044468E+01  0.000000000E+00  0.00000E+00  9.000E+00
      23     2     1     2     0     0  2.449268750E+00  1.749894491E+00 -5.909293790E+00  1.821515710E+01  1.696499770E+01  0.00000E+00  9.000E+00
      11     1     3     3     0     0 -3.325454764E+00  4.608326178E+00 -9.326615718E+00  1.092158782E+01  5.109988972E-04  0.00000E+00  9.000E+00
     -11     1     3     3     0     0  5.774723514E+00 -2.858431688E+00  3.417321927E+00  7.293569277E+00  5.109989226E-04  0.00000E+00  9.000E+00
      21     1     1     2   511   501 -2.449268750E+00 -1.749894491E+00 -5.885674010E+00  6.610764455E+00  6.052880291E-08  0.00000E+00  9.000E+00
</event>
<event>
      6  10011  1.00000E+00  1.56935E+00 -1.00000E+00  4.20328E-01
      -2    -1     0     0     0   501  0.000000000E+00  0.000000000E+00  2.296825213E+01  2.296825213E+01  0.000000000E+00  0.00000E+00  9.000E+00
       2    -1     0     0   511     0  0.000000000E+00  0.000000000E+00 -5.279563681E+00  5.279563681E+00  0.000000000E+00  0.00000E+00  9.000E+00
      23     2     1     2     0     0 -1.506929783E+00 -4.382072343E-01  1.750919090E+01  2.666823285E+01  2.005392766E+01  0.00000E+00  9.000E+00
      11     1     3     3     0     0 -2.019451174E+00  4.994389197E+00  1.996885186E+01  2.068277427E+01  5.109987148E-04  0.00000E+00  9.000E+00
     -11     1     3     3     0     0  5.125213912E-01 -5.432596432E+00 -2.459660961E+00  5.985458585E+00  5.109989109E-04  0.00000E+00  9.000E+00
      21     1     1     2   511   501  1.506929783E+00  4.382072343E-01  1.794975495E-01  1.579582958E+00  2.137077445E-08  0.00000E+00  9.000E+00
</event>
<event>
      6  10011  1.00000E+00  6.38302E+00 -1.00000E+00  2.21302E-01
       3    -1     0     0   501     0  0.000000000E+00  0.000000000E+00  1.117331340E+01  1.117331340E+01  0.000000000E+00  0.00000E+00  9.000E+00
      21    -1     0     0   511   501  0.000000000E+00  0.000000000E+00 -2.103447248E+02  2.103447248E+02  0.000000000E+00  0.00000E+00  9.000E+00
      23     2     1     2     0     0  6.188797503E+00  1.562612206E+00 -1.885229087E+02  2.091029836E+02  9.023540138E+01  0.00000E+00  9.000E+00
      11     1     3     3     0     0 -4.107303900E+01 -7.010527006E+00 -1.011806863E+02  1.094242811E+02  5.110015734E-04  0.00000E+00  9.000E+00
     -11     1     3     3     0     0  4.726183650E+01  8.573139212E+00 -8.734222246E+01  9.967870249E+01  5.110002715E-04  0.00000E+00  9.000E+00
       3     1     1     2   511     0 -6.188797503E+00 -1.562612206E+00 -1.064850262E+01  1.241505455E+01  9.219623112E-08  0.00000E+00  9.000E+00
</event>
<event>
      6  10011  1.00000E+00  2.14934E+00 -1.00000E+00  3.48884E-01
      -2    -1     0     0     0   501  0.000000000E+00  0.000000000E+00  4.419983142E-01  4.419983142E-01  0.000000000E+00  0.00000E+00  9.000E+00
       2    -1     0     0   511     0  0.000000000E+00  0.000000000E+00 -4.640330300E+02  4.640330300E+02  0.000000000E+00  0.00000E+00  9.000E+00
      23     2     1     2     0     0 -1.858025171E+00  1.080457027E+00 -2.766129561E+02  2.774845997E+02  2.187134978E+01  0.00000E+00  9.000E+00
      11     1     3     3     0     0  8.189700738E+00 -5.207418252E+00 -1.518678553E+02  1.521776392E+02  5.110135818E-04  0.00000E+00  9.000E+00
     -11     1     3     3     0     0 -1.004772591E+01  6.287875279E+00 -1.247451008E+02  1.253069605E+02  5.110049974E-04  0.00000E+00  9.000E+00
      21     1     1     2   511   501  1.858025171E+00 -1.080457027E+00 -1.869780756E+02  1.869904286E+02  1.555441421E-06  0.00000E+00  9.000E+00
</event>
<event>
      6  10011  1.00000E+00  9.00991E+00 -1.00000E+00  2.01080E-01
       3    -1     0     0   501     0  0.000000000E+00  0.000000000E+00  3.103739116E+01  3.103739116E+01  0.000000000E+00  0.00000E+00  9.000E+00
      -3    -1     0     0     0   511  0.000000000E+00  0.000000000E+00 -1.410187353E+02  1.410187353E+02  0.000000000E+00  0.00000E+00  9.000E+00
      23     2     1     2     0     0  1.499851589E-02 -9.009897478E+00 -3.508516844E+01  9.661995734E+01  8.957270028E+01  0.00000E+00  9.000E+00
      11     1     3     3     0     0  1.748596079E+00  2.198988571E+01  2.230419112E+01  3.137020248E+01  5.109992651E-04  0.00000E+00  9.000E+00
     -11     1     3     3     0     0 -1.733597563E+00 -3.099978319E+01 -5.738935956E+01  6.524975486E+01  5.109999956E-04  0.00000E+00  9.000E+00
      21     1     1     2   501   511 -1.499851589E-02  9.009897478E+00 -7.489617571E+01  7.543616913E+01  1.196740449E-06  0.00000E+00  9.000E+00
</event>
<event>
      6  10011  1.00000E+00  3.90828E+00 -1.00000E+00  2.65756E-01
      -3    -1     0     0     0   501  0.000000000E+00  0.000000000E+00  1.031110452E+02  1.031110452E+02  0.000000000E+00  0.00000E+00  9.000E+00
      21    -1     0     0   501   511  0.000000000E+00  0.000000000E+00 -2.010186603E+01  2.010186603E+01  0.000000000E+00  0.00000E+00  9.000E+00
      23     2     1     2     0     0 -1.734075321E+00  3.502520337E+00  7.575858943E+01  1.149760600E+02  8.639939724E+01  0.00000E+00  9.000E+00
      11     1     3     3     0     0 -3.272358235E+01 -7.820944999E+00  7.474344033E+01  8.196695612E+01  5.110019110E-04  0.00000E+00  9.000E+00
     -11     1     3     3     0     0  3.098950703E+01  1.132346534E+01  1.015149092E+00  3.300910391E+01  5.109984825E-04  0.00000E+00  9.000E+00
      -3     1     1     2     0   511  1.734075321E+00 -3.502520337E+00  7.250589779E+00  8.236851223E+00  6.831109830E-08  0.00000E+00  9.000E+00
</event>
<event>
      6  10011  1.00000E+00  2.46801E+01 -1.00000E+00  1.59133E-01
      -2    -1     0     0     0   501  0.000000000E+00  0.000000000E+00  1.251841967E+01  1.251841967E+01  0.000000000E+00  0.00000E+00  9.000E+00
      21    -1     0     0   501   511  0.000000000E+00  0.000000000E+00 -3.008338733E+02  3.008338733E+02  0.000000000E+00  0.00000E+00  9.000E+00
      23     2     1     2     0     0 -2.184433844E+01 -1.148623081E+01 -2.663620329E+02  2.803210759E+02  8.379775890E+01  0.00000E+00  9.000E+00
      11     1     3     3     0     0 -5.537325090E+00 -1.860478358E+01 -2.610236888E+02  2.617444671E+02  5.110007669E-04  0.00000E+00  9.000E+00
     -11     1     3     3     0     0 -1.630701335E+01  7.118552775E+00 -5.338344175E+00  1.857660886E+01  5.109986219E-04  0.00000E+00  9.000E+00
      -2     1     1     2     0   511  2.184433844E+01  1.148623081E+01 -2.195342073E+01  3.303121708E+01  1.321296979E-07  0.00000E+00  9.000E+00
</event>
<event>
      6  10011  1.00000E+00  3.16723E+01 -1.00000E+00  1.51387E-01
      21    -1     0     0   511   501  0.000000000E+00  0.000000000E+00  2.996775875E+00  2.996775875E+00  0.000000000E+00  0.00000E+00  9.000E+00
       2    -1     0     0   501     0  0.000000000E+00  0.000000000E+00 -7.104964971E+02  7.104964971E+02  0.000000000E+00  0.00000E+00  9.000E+00
      23     2     1     2     0     0  1.240822821E+01 -2.914056067E+01 -5.293558934E+02  5.325558258E+02  4.893781048E+01  0.00000E+00  9.000E+00
      11     1     3     3     0     0  2.319022825E+01 -3.017062832E+00 -1.220228997E+02  1.242436212E+02  5.109817333E-04  0.00000E+00  9.000E+00
     -11     1     3     3     0     0 -1.078200004E+01 -2.612349784E+01 -4.073329937E+02  4.083122046E+02  5.110232506E-04  0.00000E+00  9.000E+00
       2     1     1     2   511     0 -1.240822821E+01  2.914056067E+01 -1.781438278E+02  1.809374471E+02  8.183437716E-07  0.00000E+00  9.000E+00
</event>
<event>
      6  10011  1.00000E+00  8.40889E+00 -1.00000E+00  2.04816E-01
      -1    -1     0     0     0   501  0.000000000E+00  0.000000000E+00  3.703767065E+01  3.703767065E+01  0.000000000E+00  0.00000E+00  9.000E+00
       1    -1     0     0   511     0  0.000000000E+00  0.000000000E+00 -6.810177368E+01  6.810177368E+01  0.000000000E+00  0.00000E+00  9.000E+00
      23     2     1     2     0     0 -8.274190891E+00  1.499041877E+00 -2.744734484E+01  9.598574009E+01  9.159255538E+01  0.00000E+00  9.000E+00
      11     1     3     3     0     0 -6.380163688E+00  1.572843922E+01 -5.896165016E+01  6.135606310E+01  5.109998329E-04  0.00000E+00  9.000E+00
     -11     1     3     3     0     0 -1.894027202E+00 -1.422939734E+01  3.151430533E+01  3.462967699E+01  5.109991720E-04  0.00000E+00  9.000E+00
      21     1     1     2   511   501  8.274190891E+00 -1.499041877E+00 -3.616758189E+00  9.153704236E+00  1.753757316E-07  0.00000E+00  9.000E+00
</event>
<event>
      6  10011  1.00000E+00  3.09286E+01 -1.00000E+00  1.52091E-01
      21    -1     0     0   511   501  0.000000000E+00  0.000000000E+00  2.041057415E+02  2.041057415E+02  0.000000000E+00  0.00000E+00  9.000E+00
       4    -1     0     0   501     0  0.000000000E+00  0.000000000E+00 -9.396148670E+00  9.396148670E+00  0.000000000E+00  0.00000E+00  9.000E+00
      23     2     1     2     0     0  2.431141309E+01  1.911892090E+01  1.035611067E+02  1.172489709E+02  4.545151718E+01  0.00000E+00  9.000E+00
      11     1     3     3     0     0 -9.411884114E+00  1.276788186E+01  5.847975715E+01  6.059277487E+01  5.109985523E-04  0.00000E+00  9.000E+00
     -11     1     3     3     0     0  3.372329721E+01  6.351039044E+00  4.508134952E+01  5.665619601E+01  5.109985155E-04  0.00000E+00  9.000E+00
       4     1     1     2   511     0 -2.431141309E+01 -1.911892090E+01  9.114848620E+01  9.625291933E+01  1.048177802E-06  0.00000E+00  9.000E+00
</event>
<event>
      6  10011  1.00000E+00  1.19083E+01 -1.00000E+00  1.87326E-01
      -2    -1     0     0     0   511  0.000000000E+00  0.000000000E+00  4.633444804E+00  4.633444804E+00  0.000000000E+00  0.00000E+00  9.000E+00
       2    -1     0     0   501     0  0.000000000E+00  0.000000000E+00 -6.423429638E+02  6.423429638E+02  0.000000000E+00  0.00000E+00  9.000E+00
      23     2     1     2     0     0 -1.175566183E+01  1.900551760E+00 -6.109549020E+02  6.176913064E+02  9.019340331E+01  0.00000E+00  9.000E+00
      11     1     3     3     0     0  1.477977257E+01  8.827178080E+00 -2.124610170E+01  2.734515657E+01  5.109990215E-04  0.00000E+00  9.000E+00
     -11     1     3     3     0     0 -2.653543439E+01 -6.926626321E+00 -5.897088003E+02  5.903461498E+02  5.108774153E-04  0.00000E+00  9.000E+00
      21     1     1     2   501   511  1.175566183E+01 -1.900551760E+00 -2.675461690E+01  2.928510214E+01  4.396473912E-07  0.00000E+00  9.000E+00
</event>
<event>
      6  10011  1.00000E+00  1.25400E+01 -1.00000E+00  1.84988E-01
       1    -1     0     0   501     0  0.000000000E+00  0.000000000E+00  1.299721513E+02  1.299721513E+02  0.000000000E+00  0.00000E+00  9.000E+00
      21    -1     0     0   511   501  0.000000000E+00  0.000000000E+00 -2.382936278E+00  2.382936278E+00  0.000000000E+00  0.00000E+00  9.000E+00
      23     2     1     2     0     0  1.054374160E+01 -6.788257537E+00  6.788605885E+01  7.134920439E+01  1.802612140E+01  0.00000E+00  9.000E+00
      11     1     3     3     0     0 -2.761372918E+00  3.597156380E+00  8.800864990E+00  9.900501969E+00  5.109988946E-04  0.00000E+00  9.000E+00
     -11     1     3     3     0     0  1.330511452E+01 -1.038541392E+01  5.908519386E+01  6.144870242E+01  5.109984908E-04  0.00000E+00  9.000E+00
       1     1     1     2   511     0 -1.054374160E+01  6.788257537E+00  5.970315614E+01  6.100588316E+01  2.842960362E-07  0.00000E+00  9.000E+00
</event>
<event>
      6  10011  1.00000E+00  6.50906E+00 -1.00000E+00  2.20041E-01
       2    -1     0     0   501     0  0.000000000E+00  0.000000000E+00  1.206273871E+03  1.206273871E+03  0.000000000E+00  0.00000E+00  9.000E+00
      21    -1     0     0   511   501  0.000000000E+00  0.000000000E+00 -3.631031212E+01  3.631031212E+01  0.000000000E+00  0.00000E+00  9.000E+00
      23     2     1     2     0     0 -3.391576617E+00 -5.555628371E+00  1.204219022E+03  1.207715795E+03  9.160578852E+01  0.00000E+00  9.000E+00
      11     1     3     3     0     0  1.354399860E+01 -7.653034744E+00  3.419535921E+01  3.756769131E+01  5.109962075E-04  0.00000E+00  9.000E+00
     -11     1     3     3     0     0 -1.693557522E+01  2.097406373E+00  1.170023663E+03  1.170148104E+03  5.112136904E-04  0.00000E+00  9.000E+00
       2     1     1     2   511     0  3.391576617E+00  5.555628371E+00 -3.425546273E+01  3.486838863E+01  1.560998877E-06  0.00000E+00  9.000E+00
</event>
<event>
      5  10011  1.00000E+00  8.94427E-01 -1.00000E+00  7.48398E-01
       1    -1     0     0   501     0  0.000000000E+00  0.000000000E+00  1.079433293E+03  1.079433293E+03  0.000000000E+00  0.00000E+00  9.000E+00
      -1    -1     0     0     0   501  0.000000000E+00  0.000000000E+00 -6.187413781E-02  6.187413781E-02  0.000000000E+00  0.00000E+00  9.000E+00
      23     2     1     2     0     0  0.000000000E+00  0.000000000E+00  1.079371419E+03  1.079495167E+03  1.634490799E+01  0.00000E+00  9.000E+00
      11     1     3     3     0     0 -4.744030891E+00  4.886303117E+00  8.380385052E+02  8.380661776E+02  5.110745689E-04  0.00000E+00  9.000E+00
     -11     1     3     3     0     0  4.744030891E+00 -4.886303117E+00  2.413329139E+02  2.414289898E+02  5.109545796E-04  0.00000E+00  9.000E+00
</event>
<event>
      6  10011  1.00000E+00  5.07854E+00 -1.00000E+00  2.37252E-01
      -2    -1     0     0     0   501  0.000000000E+00  0.000000000E+00  5.556618208E-01  5.556618208E-01  0.000000000E+00  0.00000E+00  9.000E+00
       2    -1     0     0   511     0  0.000000000E+00  0.000000000E+00 -3.156383720E+02  3.156383720E+02  0.000000000E+00  0.00000E+00  9.000E+00
      23     2     1     2     0     0 -3.251882013E+00  3.900874312E+00 -2.265169835E+02  2.274828198E+02  2.031496781E+01  0.00000E+00  9.000E+00
      11     1     3     3     0     0 -5.775752265E+00 -7.262352554E+00 -1.178755233E+02  1.182401796E+02  5.109955482E-04  0.00000E+00  9.000E+00
     -11     1     3     3     0     0  2.523870251E+00  1.116322687E+01 -1.086414602E+02  1.092426402E+02  5.109977721E-04  0.00000E+00  9.000E+00
      21     1     1     2   511   501  3.251882013E+00 -3.900874312E+00 -8.856572663E+01  8.871121401E+01  4.261836304E-07  0.00000E+00  9.000E+00
</event>
<event>
      6  10011  1.00000E+00  3.39915E+01 -1.00000E+00  1.49332E-01
      -3    -1     0     0     0   501  0.000000000E+00  0.000000000E+00  3.848107668E+02  3.848107668E+02  0.000000000E+00  0.00000E+00  9.000E+00
      21    -1     0     0   501   511  0.000000000E+00  0.000000000E+00 -1.078716720E+01  1.078716720E+01  0.000000000E+00  0.00000E+00  9.000E+00
      23     2     1     2     0     0  2.017517576E+01 -2.735667482E+01  2.890857830E+02  3.041110056E+02  8.807660549E+01  0.00000E+00  9.000E+00
      11     1     3     3     0     0  2.461806288E+01  2.615926197E+01  1.656507967E+02  1.695008627E+02  5.110009511E-04  0.00000E+00  9.000E+00
     -11     1     3     3     0     0 -4.442887124E+00 -5.351593679E+01  1.234349863E+02  1.346101429E+02  5.109935580E-04  0.00000E+00  9.000E+00
      -3     1     1     2     0   511 -2.017517576E+01  2.735667482E+01  8.493781655E+01  9.148692832E+01  1.350344510E-06  0.00000E+00  9.000E+00
</event>
<event>
      6  10011  1.00000E+00  6.52306E+00 -1.00000E+00  2.19904E-01
       2    -1     0     0   511     0  0.000000000E+00  0.000000000E+00  1.238359155E+02  1.238359155E+02  0.000000000E+00  0.00000E+00  9.000E+00
      -2    -1     0     0     0   501  0.000000000E+00  0.000000000E+00 -2.273042005E+00  2.273042005E+00  0.000000000E+00  0.00000E+00  9.000E+00
      23     2     1     2     0     0 -4.430599477E+00 -4.787496513E+00  9.309371896E+01  9.690205602E+01  2.609631422E+01  0.00000E+00  9.000E+00
      11     1     3     3     0     0 -1.346941458E+01 -9.388701075E+00  4.982542210E+01  5.246089519E+01  5.110004649E-04  0.00000E+00  9.000E+00
     -11     1     3     3     0     0  9.038815099E+00  4.601204562E+00  4.326829686E+01  4.444116082E+01  5.109980944E-04  0.00000E+00  9.000E+00
      21     1     1     2   511   501  4.430599477E+00  4.787496513E+00  2.846915452E+01  2.920690148E+01  2.468830574E-07  0.00000E+00  9.000E+00
</event>
<event>
      6  10011  1.00000E+00  3.83947E+00 -1.00000E+00  2.67621E-01
       2    -1     0     0   501     0  0.000000000E+00  0.000000000E+00  9.175764774E+02  9.175764774E+02  0.000000000E+00  0.00000E+00  9.000E+00
      -2    -1     0     0     0   511  0.000000000E+00  0.000000000E+00 -1.124119574E+00  1.124119574E+00  0.000000000E+00  0.00000E+00  9.000E+00
      23     2     1     2     0     0 -3.809519929E+00 -4.786547009E-01  9.111149870E+02  9.121257145E+02  4.275579429E+01  0.00000E+00  9.000E+00
      11     1     3     3     0     0  1.345140405E+01 -6.362799843E+00  1.387831027E+02  1.395785624E+02  5.109559146E-04  0.00000E+00  9.000E+00
     -11     1     3     3     0     0 -1.726092398E+01  5.884145142E+00  7.723318844E+02  7.725471521E+02  5.108184130E-04  0.00000E+00  9.000E+00
      21     1     1     2   501   511  3.809519929E+00  4.786547009E-01  5.337370854E+00  6.574882512E+00  1.213152668E-07  0.00000E+00  9.000E+00
</event>
<event>
      6  10011  1.00000E+00  1.59662E+01 -1.00000E+00  1.74821E-01
      -1    -1     0     0     0   501  0.000000000E+00  0.000000000E+00  6.673565696E+01  6.673565696E+01  0.000000000E+00  0.00000E+00  9.000E+00
       1    -1     0     0   511     0  0.000000000E+00  0.000000000E+00 -5.097541023E+01  5.097541023E+01  0.000000000E+00  0.00000E+00  9.000E+00
      23     2     1     2     0     0  1.523383932E+01 -4.780206104E+00  2.871317185E+01  9.715143441E+01  9.142775694E+01  0.00000E+00  9.000E+00
      11     1     3     3     0     0 -1.165640671E+01 -2.445989842E+01 -2.306125123E+01  3.558060928E+01  5.109991298E-04  0.00000E+00  9.000E+00
     -11     1     3     3     0     0  2.689024602E+01  1.967969232E+01  5.177442308E+01  6.157082513E+01  5.109983011E-04  0.00000E+00  9.000E+00
      21     1     1     2   511   501 -1.523383932E+01  4.780206104E+00 -1.295292513E+01  2.055963278E+01  2.491213902E-07  0.00000E+00  9.000E+00
</event>
<event>
      6  10011  1.00000E+00  3.46580E+01 -1.00000E+00  1.48777E-01
      21    -1     0     0   511   501  0.000000000E+00  0.000000000E+00  3.829069717E+01  3.829069717E+01  0.000000000E+00  0.00000E+00  9.000E+00
       2    -1     0     0   501     0  0.000000000E+00  0.000000000E+00 -2.979383238E+02  2.979383238E+02  0.000000000E+00  0.00000E+00  9.000E+00
      23     2     1     2     0     0  3.386343873E+00  3.449220993E+01 -2.805095457E+02  2.957765854E+02  8.716079046E+01  0.00000E+00  9.000E+00
      11     1     3     3     0     0  3.339005581E+01  4.613771825E+01 -1.310409735E+02  1.428821949E+02  5.110015264E-04  0.00000E+00  9.000E+00
     -11     1     3     3     0     0 -3.000371193E+01 -1.164550833E+01 -1.494685722E+02  1.528943905E+02  5.110040276E-04  0.00000E+00  9.000E+00
       2     1     1     2   511     0 -3.386343873E+00 -3.449220993E+01  2.086191910E+01  4.045243551E+01  1.110898807E-06  0.00000E+00  9.000E+00
</event>
<event>
      6  10011  1.00000E+00  5.94388E+00 -1.00000E+00  2.26029E-01
       2    -1     0     0   511     0  0.000000000E+00  0.000000000E+00  1.795485784E+01  1.795485784E+01  0.000000000E+00  0.00000E+00  9.000E+00
      -2    -1     0     0     0   501  0.000000000E+00  0.000000000E+00 -1.594888931E+02  1.594888931E+02  0.000000000E+00  0.00000E+00  9.000E+00
      23     2     1     2     0     0 -3.266832819E+00 -4.965637807E+00 -1.519514207E+02  1.654499328E+02  6.518524561E+01  0.00000E+00  9.000E+00
      11     1     3     3     0     0 -3.332436966E+01  1.209919675E+00 -9.614433422E+01  1.017630116E+02  5.110047454E-04  0.00000E+00  9.000E+00
     -11     1     3     3     0     0  3.005753684E+01 -6.175557482E+00 -5.580708647E+01  6.368692120E+01  5.110002611E-04  0.00000E+00  9.000E+00
      21     1     1     2   511   501  3.266832819E+00  4.965637807E+00  1.041738542E+01  1.199381818E+01  1.695518724E-07  0.00000E+00  9.000E+00
</event>
<event>
      6  10011  1.00000E+00  3.57223E+00 -1.00000E+00  2.75489E-01
      21    -1     0     0   511   501  0.000000000E+00  0.000000000E+00  1.336236696E+00  1.336236696E+00  0.000000000E+00  0.00000E+00  9.000E+00
       2    -1     0     0   501     0  0.000000000E+00  0.000000000E+00 -2.039485165E+02  2.039485165E+02  0.000000000E+00  0.00000E+00  9.000E+00
      23     2     1     2     0     0 -3.520672176E+00 -6.047364596E-01 -1.777989599E+02  1.802156152E+02  2.919652301E+01  0.00000E+00  9.000E+00
      11     1     3     3     0     0 -4.370751023E-01  5.134120152E+00 -4.639449553E+00  6.933593354E+00  5.109990087E-04  0.00000E+00  9.000E+00
     -11     1     3     3     0     0 -3.083597074E+00 -5.738856612E+00 -1.731595104E+02  1.732820218E+02  5.109935328E-04  0.00000E+00  9.000E+00
       2     1     1     2   511     0  3.520672176E+00  6.047364596E-01 -2.481331985E+01  2.506913801E+01  5.525498455E-08  0.00000E+00  9.000E+00
</event>
<event>
      6  10011  1.00000E+00  9.49818E+00 -1.00000E+00  1.98318E-01
       1    -1     0     0   501     0  0.000000000E+00  0.000000000E+00  1.684989008E+03  1.684989008E+03  0.000000000E+00  0.00000E+00  9.000E+00
      21    -1     0     0   511   501  0.000000000E+00  0.000000000E+00 -1.710420101E+00  1.710420101E+00  0.000000000E+00  0.00000E+00  9.000E+00
      23     2     1     2     0     0 -7.579549946E+00  5.724151334E+00  1.615387883E+03  1.618147525E+03  9.398503876E+01  0.00000E+00  9.000E+00
      11     1     3     3     0     0  3.946321707E+01 -4.610708014E+00  1.035825192E+03  1.036586915E+03  5.105291723E-04  0.00000E+00  9.000E+00
     -11     1     3     3     0     0 -4.704276702E+01  1.033485935E+01  5.795626909E+02  5.815606107E+02  5.109543779E-04  0.00000E+00  9.000E+00
       1     1     1     2   511     0  7.579549946E+00 -5.724151334E+00  6.789070553E+01  6.855190284E+01  3.002500784E-07  0.00000E+00  9.000E+00
</event>
<event>
      6  10011  1.00000E+00  1.30284E+01 -1.00000E+00  1.83299E-01
      -2    -1     0     0     0   501  0.000000000E+00  0.000000000E+00  2.359081306E+01  2.359081306E+01  0.000000000E+00  0.00000E+00  9.000E+00
      21    -1     0     0   501   511  0.000000000E+00  0.000000000E+00 -1.581660426E+01  1.581660426E+01  0.000000000E+00  0.00000E+00  9.000E+00
      23     2     1     2     0     0  2.848769052E+00  1.271315752E+01  1.100067090E+01  2.598542354E+01  1.960835580E+01  0.00000E+00  9.000E+00
      11     1     3     3     0     0  4.133837772E+00  1.114137630E+01  1.637944952E+01  2.023623600E+01  5.109990440E-04  0.00000E+00  9.000E+00
     -11     1     3     3     0     0 -1.285068719E+00  1.571781223E+00 -5.378778615E+00  5.749187549E+00  5.109988928E-04  0.00000E+00  9.000E+00
      -2     1     1     2     0   511 -2.848769052E+00 -1.271315752E+01 -3.226462107E+00  1.342199378E+01  1.706380190E-07  0.00000E+00  9.000E+00
</event>
<event>
      6  10011  1.00000E+00  6.66347E+00 -1.00000E+00  2.18550E-01
      -3    -1     0     0     0   511  0.000000000E+00  0.000000000E+00  4.142427977E+01  4.142427977E+01  0.000000000E+00  0.00000E+00  9.000E+00
       3    -1     0     0   501     0  0.000000000E+00  0.000000000E+00 -5.857041124E+00  5.857041124E+00  0.000000000E+00  0.00000E+00  9.000E+00
      23     2     1     2     0     0 -6.350232443E+00  2.018991933E+00  1.235535269E+01  2.313192277E+01  1.838557397E+01  0.00000E+00  9.000E+00
      11     1     3     3     0     0  2.197371456E-01 -5.117362970E+00  1.241663422E+01  1.343162291E+01  5.109989451E-04  0.00000E+00  9.000E+00
     -11     1     3     3     0     0 -6.569969588E+00  7.136354903E+00 -6.128152996E-02  9.700299860E+00  5.109989627E-04  0.00000E+00  9.000E+00
      21     1     1     2   501   511  6.350232443E+00 -2.018991933E+00  2.321188595E+01  2.414939813E+01  3.191597758E-07  0.00000E+00  9.000E+00
</event>
<event>
      6  10011  1.00000E+00  1.78738E+01 -1.00000E+00  1.70456E-01
      21    -1     0     0   511   501  0.000000000E+00  0.000000000E+00  5.516974580E+01  5.516974580E+01  0.000000000E+00  0.00000E+00  9.000E+00
       1    -1     0     0   501     0  0.000000000E+00  0.000000000E+00 -5.936318623E+01  5.936318623E+01  0.000000000E+00  0.00000E+00  9.000E+00
      23     2     1     2     0     0 -1.394342527E+01  1.118271651E+01 -1.454820298E+01  9.387637461E+01  9.100357819E+01  0.00000E+00  9.000E+00
      11     1     3     3     0     0  3.874929308E+01  5.356941179E+00 -1.150806175E+01  4.077548305E+01  5.110000472E-04  0.00000E+00  9.000E+00
     -11     1     3     3     0     0 -5.269271835E+01  5.825775326E+00 -3.040141225E+00  5.310089156E+01  5.109995288E-04  0.00000E+00  9.000E+00
       1     1     1     2   511     0  1.394342527E+01 -1.118271651E+01  1.035476256E+01  2.065655742E+01  3.005965343E-07  0.00000E+00  9.000E+00
</event>
<event>
      6  10011  1.00000E+00  1.60598E+00 -1.00000E+00  4.14022E-01
       2    -1     0     0   511     0  0.000000000E+00  0.000000000E+00  4.347890049E+02  4.347890049E+02  0.000000000E+00  0.00000E+00  9.000E+00
      -2    -1     0     0     0   501  0.000000000E+00  0.000000000E+00 -2.634834608E-01  2.634834608E-01  0.000000000E+00  0.00000E+00  9.000E+00
      23     2     1     2     0     0  1.484056311E+00 -6.138107739E-01  2.912355762E+02  2.917535435E+02  1.730289349E+01  0.00000E+00  9.000E+00
      11     1     3     3     0     0 -2.213188881E+00 -6.302084274E+00  5.271199366E+01  5.313349929E+01  5.109962434E-04  0.00000E+00  9.000E+00
     -11     1     3     3     0     0  3.697245192E+00  5.688273500E+00  2.385235826E+02  2.386200442E+02  5.109886903E-04  0.00000E+00  9.000E+00
      21     1     1     2   511   501 -1.484056311E+00  6.138107739E-01  1.432899453E+02  1.432989449E+02  2.858538343E-07  0.00000E+00  9.000E+00
</event>
<event>
      6  10011  1.00000E+00  6.97144E+00 -1.00000E+00  2.15733E-01
      21    -1     0     0   511   501  0.000000000E+00  0.000000000E+00  1.815793906E+01  1.815793906E+01  0.000000000E+00  0.00000E+00  9.000E+00
       1    -1     0     0   501     0  0.000000000E+00  0.000000000E+00 -1.699459241E+02  1.699459241E+02  0.000000000E+00  0.00000E+00  9.000E+00
      23     2     1     2     0     0  5.471320476E+00  4.320368864E+00 -1.556629461E+02  1.801278830E+02  9.036869215E+01  0.00000E+00  9.000E+00
      11     1     3     3     0     0  4.288734435E+01 -3.279591112E-01 -1.229333879E+02  1.302000373E+02  5.109988471E-04  0.00000E+00  9.000E+00
     -11     1     3     3     0     0 -3.741602387E+01  4.648327976E+00 -3.272955821E+01  4.992784570E+01  5.109986940E-04  0.00000E+00  9.000E+00
       1     1     1     2   511     0 -5.471320476E+00 -4.320368864E+00  3.874961104E+00  7.975980092E+00  1.437709900E-07  0.00000E+00  9.000E+00
</event>
<event>
      6  10011  1.00000E+00  2.26233E+00 -1.00000E+00  3.39624E-01
      -2    -1     0     0     0   501  0.000000000E+00  0.000000000E+00  5.453506672E+00  5.453506672E+00  0.000000000E+00  0.00000E+00  9.000E+00
       2    -1     0     0   511     0  0.000000000E+00  0.000000000E+00 -1.440362329E+02  1.440362329E+02  0.000000000E+00  0.00000E+00  9.000E+00
      23     2     1     2     0     0 -1.190375128E+00  1.923831929E+00 -5.739502791E+01  6.827052707E+01  3.689928881E+01  0.00000E+00  9.000E+00
      11     1     3     3     0     0 -4.711805006E+00 -1.814358274E+00  4.135216647E+00  6.526332764E+00  5.109989175E-04  0.00000E+00  9.000E+00
     -11     1     3     3     0     0  3.521429878E+00  3.738190204E+00 -6.153024456E+01  6.174419431E+01  5.110000840E-04  0.00000E+00  9.000E+00
      21     1     1     2   511   501  1.190375128E+00 -1.923831929E+00 -8.118769835E+01  8.121921254E+01  2.889442359E-07  0.00000E+00  9.000E+00
</event>
<event>
      6  10011  1.00000E+00  1.54154E+01 -1.00000E+00  1.76226E-01
      -2    -1     0     0     0   501  0.000000000E+00  0.000000000E+00  1.891048957E+02  1.891048957E+02  0.000000000E+00  0.00000E+00  9.000E+00
      21    -1     0     0   501   511  0.000000000E+00  0.000000000E+00 -2.022913458E+00  2.022913458E+00  0.000000000E+00  0.00000E+00  9.000E+00
      23     2     1     2     0     0 -1.511017579E+01 -3.052337369E+00  1.214148739E+02  1.236755794E+02  1.778884959E+01  0.00000E+00  9.000E+00
      11     1     3     3     0     0  3.943815505E+00  3.086160846E-01  2.799838292E+01  2.827646320E+01  5.109998820E-04  0.00000E+00  9.000E+00
     -11     1     3     3     0     0 -1.905399130E+01 -3.360953454E+00  9.341649097E+01  9.539911624E+01  5.110013691E-04  0.00000E+00  9.000E+00
      -2     1     1     2     0   511  1.511017579E+01  3.052337369E+00  6.566710834E+01  6.745222971E+01  1.041590102E-06  0.00000E+00  9.000E+00
</event>
<event>
      6  10011  1.00000E+00  1.44041E+01 -1.00000E+00  1.79010E-01
      -2    -1     0     0     0   501  0.000000000E+00  0.000000000E+00  8.180774718E+00  8.180774718E+00  0.000000000E+00  0.00000E+00  9.000E+00
       2    -1     0     0   511     0  0.000000000E+00  0.000000000E+00 -1.818640126E+02  1.818640126E+02  0.000000000E+00  0.00000E+00  9.000E+00
      23     2     1     2     0     0  1.429283436E+01 -1.787098129E+00 -8.334954090E+01  9.856989653E+01  5.061027268E+01  0.00000E+00  9.000E+00
      11     1     3     3     0     0  1.790389108E+01  4.747908769E+00 -4.102131719E+00  1.897154286E+01  5.109986923E-04  0.00000E+00  9.000E+00
     -11     1     3     3     0     0 -3.611056721E+00 -6.535006898E+00 -7.924740918E+01  7.959835367E+01  5.109943480E-04  0.00000E+00  9.000E+00
      21     1     1     2   511   501 -1.429283436E+01  1.787098129E+00 -9.033369697E+01  9.147489077E+01  3.216718606E-07  0.00000E+00  9.000E+00
</event>
<event>
      6  10011  1.00000E+00  2.16989E+00 -1.00000E+00  3.47123E-01
       3    -1     0     0   501     0  0.000000000E+00  0.000000000E+00  1.385720046E+02  1.385720046E+02  0.000000000E+00  0.00000E+00  9.000E+00
      21    -1     0     0   511   501  0.000000000E+00  0.000000000E+00 -1.780179601E+01  1.780179601E+01  0.000000000E+00  0.00000E+00  9.000E+00
      23     2     1     2     0     0  1.374139293E+00 -1.679337377E+00  1.358865812E+02  1.411024827E+02  3.794784887E+01  0.00000E+00  9.000E+00
      11     1     3     3     0     0  4.143750454E+00  9.070223928E+00  8.134260495E+00  1.286879264E+01  5.109991917E-04  0.00000E+00  9.000E+00
     -11     1     3     3     0     0 -2.769611161E+00 -1.074956130E+01  1.277523207E+02  1.282336900E+02  5.109975609E-04  0.00000E+00  9.000E+00
       3     1     1     2   511     0 -1.374139293E+00  1.679337377E+00 -1.511637257E+01  1.527131797E+01  3.114574398E-07  0.00000E+00  9.000E+00
</event>
<event>
      6  10011  1.00000E+00  2.73863E+00 -1.00000E+00  3.09269E-01
      -2    -1     0     0     0   501  0.000000000E+00  0.000000000E+00  4.380749298E+00  4.380749298E+00  0.000000000E+00  0.00000E+00  9.000E+00
       2    -1     0     0   511     0  0.000000000E+00  0.000000000E+00 -5.317683571E+02  5.317683571E+02  0.000000000E+00  0.00000E+00  9.000E+00
      23     2     1     2     0     0 -2.619140898E+00  8.001376388E-01 -4.479770796E+02  4.566913686E+02  8.874706821E+01  0.00000E+00  9.000E+00
      11     1     3     3     0     0  5.791732382E+00  1.114258242E+01 -5.004694712E+00  1.351844208E+01  5.109997085E-04  0.00000E+00  9.000E+00
     -11     1     3     3     0     0 -8.410873280E+00 -1.034244478E+01 -4.429723849E+02  4.431729265E+02  5.109083047E-04  0.00000E+00  9.000E+00
      21     1     1     2   511   501  2.619140898E+00 -8.001376388E-01 -7.941052813E+01  7.945773780E+01  5.786564302E-07  0.00000E+00  9.000E+00
</event>
<event>
      6  10011  1.00000E+00  6.61416E+00 -1.00000E+00  2.19020E-01
      21    -1     0     0   501   511  0.000000000E+00  0.000000000E+00  1.520187505E+02  1.520187505E+02  0.000000000E+00  0.00000E+00  9.000E+00
      -4    -1     0     0     0   501  0.000000000E+00  0.000000000E+00 -3.925969805E+01  3.925969805E+01  0.000000000E+00  0.00000E+00  9.000E+00
      23     2     1     2     0     0  6.508696811E+00  1.176413236E+00  5.845251640E+00  8.416025269E+01  8.369608165E+01  0.00000E+00  9.000E+00
      11     1     3     3     0     0 -1.158779210E+01 -3.189824260E+01 -1.910940586E+01  3.894796785E+01  5.109986051E-04  0.00000E+00  9.000E+00
     -11     1     3     3     0     0  1.809648891E+01  3.307465584E+01  2.495465750E+01  4.521228484E+01  5.109994107E-04  0.00000E+00  9.000E+00
      -4     1     1     2     0   511 -6.508696811E+00 -1.176413236E+00  1.069138008E+02  1.071181959E+02  1.252761457E-06  0.00000E+00  9.000E+00
</event>
<event>
      6  10011  1.00000E+00  9.51676E-01 -1.00000E+00  6.92258E-01
      -2    -1     0     0     0   511  0.000000000E+00  0.000000000E+00  5.842113759E+00  5.842113759E+00  0.000000000E+00  0.00000E+00  9.000E+00
       2    -1     0     0   501     0  0.000000000E+00  0.000000000E+00 -8.793501160E+02  8.793501160E+02  0.000000000E+00  0.00000E+00  9.000E+00
      23     2     1     2     0     0 -8.990182982E-01 -3.121739972E-01 -8.718721627E+02  8.832997030E+02  1.416205902E+02  0.00000E+00  9.000E+00
      11     1     3     3     0     0 -3.355636790E+01  4.230528290E+01 -7.234907165E+02  7.255029866E+02  5.113107527E-04  0.00000E+00  9.000E+00
     -11     1     3     3     0     0  3.265734960E+01 -4.261745690E+01 -1.483814462E+02  1.577967163E+02  5.110338439E-04  0.00000E+00  9.000E+00
      21     1     1     2   501   511  8.990182982E-01  3.121739972E-01 -1.635839586E+00  1.892526791E+00  5.570056496E-08  0.00000E+00  9.000E+00
</event>
<event>
      6  10011  1.00000E+00  7.08131E+00 -1.00000E+00  2.14776E-01
      -2    -1     0     0     0   501  0.000000000E+00  0.000000000E+00  2.801299968E+02  2.801299968E+02  0.000000000E+00  0.00000E+00  9.000E+00
       2    -1     0     0   511     0  0.000000000E+00  0.000000000E+00 -2.996925340E+01  2.996925340E+01  0.000000000E+00  0.00000E+00  9.000E+00
      23     2     1     2     0     0  6.264667488E+00 -3.301343774E+00  2.721792491E+02  2.869700582E+02  9.066490926E+01  0.00000E+00  9.000E+00
      11     1     3     3     0     0  2.875570135E+01 -3.533238711E+01  1.971650415E+02  2.023593870E+02  5.109930670E-04  0.00000E+00  9.000E+00
     -11     1     3     3     0     0 -2.249103386E+01  3.203104333E+01  7.501420760E+01  8.461067121E+01  5.110026814E-04  0.00000E+00  9.000E+00
      21     1     1     2   511   501 -6.264667488E+00  3.301343774E+00 -2.201850566E+01  2.312919197E+01  9.872651867E-07  0.00000E+00  9.000E+00
</event>
<event>
      6  10011  1.00000E+00  1.29309E+01 -1.00000E+00  1.83629E-01
      -2    -1     0     0     0   501  0.000000000E+00  0.000000000E+00  3.539819754E+01  3.539819754E+01  0.000000000E+00  0.00000E+00  9.000E+00
      21    -1     0     0   501   511  0.000000000E+00  0.000000000E+00 -1.967974337E+01  1.967974337E+01  0.000000000E+00  0.00000E+00  9.000E+00
      23     2     1     2     0     0  1.142093614E+01  6.063937275E+00  2.837937340E+01  3.698075900E+01  1.987406813E+01  0.00000E+00  9.000E+00
      11     1     3     3     0     0  1.590773524E+01  7.359084793E-01  2.382966043E+01  2.866095459E+01  5.109988902E-04  0.00000E+00  9.000E+00
     -11     1     3     3     0     0 -4.486799101E+00  5.328028795E+00  4.549712969E+00  8.319804408E+00  5.109989338E-04  0.00000E+00  9.000E+00
      -2     1     1     2     0   511 -1.142093614E+01 -6.063937275E+00 -1.266091923E+01  1.809718191E+01  1.630213595E-07  0.00000E+00  9.000E+00
</event>
<event>
      6  10011  1.00000E+00  6.18147E+00 -1.00000E+00  2.23404E-01
      21    -1     0     0   511   501  0.000000000E+00  0.000000000E+00  3.975165135E+00  3.975165135E+00  0.000000000E+00  0.00000E+00  9.000E+00
       4    -1     0     0   501     0  0.000000000E+00  0.000000000E+00 -1.140075551E+02  1.140075551E+02  0.000000000E+00  0.00000E+00  9.000E+00
      23     2     1     2     0     0  5.137592413E-01  6.160080399E+00 -1.097757610E+02  1.117959280E+02  2.023366700E+01  0.00000E+00  9.000E+00
      11     1     3     3     0     0 -7.466756000E-01 -4.320102127E+00 -5.723723129E+00  7.209841438E+00  5.109988478E-04  0.00000E+00  9.000E+00
     -11     1     3     3     0     0  1.260434841E+00  1.048018253E+01 -1.040520379E+02  1.045860866E+02  5.109974975E-04  0.00000E+00  9.000E+00
       4     1     1     2   511     0 -5.137592413E-01 -6.160080399E+00 -2.566289340E-01  6.186792181E+00  1.353106158E-07  0.00000E+00  9.000E+00
</event>
<event>
      6  10011  1.00000E+00  1.72863E+01 -1.00000E+00  1.71725E-01
      -1    -1     0     0     0   501  0.000000000E+00  0.000000000E+00  6.785381244E+01  6.785381244E+01  0.000000000E+00  0.00000E+00  9.000E+00
      21    -1     0     0   501   511  0.000000000E+00  0.000000000E+00 -7.541232325E+01  7.541232325E+01  0.000000000E+00  0.00000E+00  9.000E+00
      23     2     1     2     0     0 -1.626690553E+01 -5.848378842E+00  3.436599425E+01  9.791770821E+01  9.004465709E+01  0.00000E+00  9.000E+00
      11     1     3     3     0     0  2.732959814E+01  1.562603981E+01 -9.043813119E+00  3.275470364E+01  5.109994795E-04  0.00000E+00  9.000E+00
     -11     1     3     3     0     0 -4.359650367E+01 -2.147441865E+01  4.340980736E+01  6.516300457E+01  5.109992856E-04  0.00000E+00  9.000E+00
      -1     1     1     2     0   511  1.626690553E+01  5.848378842E+00 -4.192450505E+01  4.534842748E+01  2.811545471E-07  0.00000E+00  9.000E+00
</event>
<event>
      6  10011  1.00000E+00  5.79273E+00 -1.00000E+00  2.27789E-01
      21    -1     0     0   511   501  0.000000000E+00  0.000000000E+00  2.899259615E+02  2.899259615E+02  0.000000000E+00  0.00000E+00  9.000E+00
       3    -1     0     0   501     0  0.000000000E+00  0.000000000E+00 -1.013598107E+01  1.013598107E+01  0.000000000E+00  0.00000E+00  9.000E+00
      23     2     1     2     0     0 -2.218036226E+00  5.351267527E+00  2.078386831E+02  2.278778381E+02  9.326218507E+01  0.00000E+00  9.000E+00
      11     1     3     3     0     0 -3.860087539E+01  2.994893246E+01  9.579510609E+01  1.075344991E+02  5.109982362E-04  0.00000E+00  9.000E+00
     -11     1     3     3     0     0  3.638283917E+01 -2.459766494E+01  1.120435770E+02  1.203433391E+02  5.109927680E-04  0.00000E+00  9.000E+00
       3     1     1     2   511     0  2.218036226E+00 -5.351267527E+00  7.195129729E+01  7.218410441E+01  6.597025282E-07  0.00000E+00  9.000E+00
</event>
<event>
      6  10011  1.00000E+00  7.36433E+00 -1.00000E+00  2.12416E-01
      -1    -1     0     0     0   511  0.000000000E+00  0.000000000E+00  3.540951039E+00  3.540951039E+00  0.000000000E+00  0.00000E+00  9.000E+00
       1    -1     0     0   501     0  0.000000000E+00  0.000000000E+00 -7.229229541E+02  7.229229541E+02  0.000000000E+00  0.00000E+00  9.000E+00
      23     2     1     2     0     0  6.311210476E+00 -3.794985711E+00 -7.025088230E+02  7.080536498E+02  8.813110340E+01  0.00000E+00  9.000E+00
      11     1     3     3     0     0 -2.570339864E+01  1.865309286E+01 -5.389949743E+02  5.399297963E+02  5.109858606E-04  0.00000E+00  9.000E+00
     -11     1     3     3     0     0  3.201460912E+01 -2.244807857E+01 -1.635138487E+02  1.681238535E+02  5.109833924E-04  0.00000E+00  9.000E+00
      21     1     1     2   501   511 -6.311210476E+00  3.794985711E+00 -1.687318007E+01  1.841025529E+01  1.718485742E-07  0.00000E+00  9.000E+00
</event>
<event>
      6  10011  1.00000E+00  7.66262E+00 -1.00000E+00  2.10080E-01
      -3    -1     0     0     0   501  0.000000000E+00  0.000000000E+00  1.615358267E+01  1.615358267E+01  0.000000000E+00  0.00000E+00  9.000E+00
      21    -1     0     0   501   511  0.000000000E+00  0.000000000E+00 -1.585058230E+02  1.585058230E+02  0.000000000E+00  0.00000E+00  9.000E+00
      23     2     1     2     0     0 -4.846180324E+00  5.935512457E+00 -1.173488912E+02  1.485082443E+02  9.069300191E+01  0.00000E+00  9.000E+00
      11     1     3     3     0     0 -2.722114164E+01 -3.500129362E+01 -5.885531298E+01  7.368873030E+01  5.109992973E-04  0.00000E+00  9.000E+00
     -11     1     3     3     0     0  2.237496132E+01  4.093680608E+01 -5.849357822E+01  7.481951402E+01  5.109982049E-04  0.00000E+00  9.000E+00
      -3     1     1     2     0   511  4.846180324E+00 -5.935512457E+00 -2.500334911E+01  2.615116132E+01  1.458107366E-07  0.00000E+00  9.000E+00
</event>
<event>
      5  10011  1.00000E+00  8.94427E-01 -1.00000E+00  7.46357E-01
      -1    -1     0     0     0   501  0.000000000E+00  0.000000000E+00  8.931903350E-02  8.931903350E-02  0.000000000E+00  0.00000E+00  9.000E+00
       1    -1     0     0   501     0  0.000000000E+00  0.000000000E+00 -1.039507667E+03  1.039507667E+03  0.000000000E+00  0.00000E+00  9.000E+00
      23     2     1     2     0     0  0.000000000E+00  0.000000000E+00 -1.039418348E+03  1.039596986E+03  1.927151474E+01  0.00000E+00  9.000E+00
      11     1     3     3     0     0  3.588992054E-01  9.292091186E+00 -6.559242278E+02  6.559901405E+02  5.110757923E-04  0.00000E+00  9.000E+00
     -11     1     3     3     0     0 -3.588992054E-01 -9.292091186E+00 -3.834941202E+02  3.836068456E+02  5.109900739E-04  0.00000E+00  9.000E+00
</event>
<event>
      6  10011  1.00000E+00  2.00776E+00 -1.00000E+00  3.62075E-01
      -2    -1     0     0     0   501  0.000000000E+00  0.000000000E+00  1.016407587E-01  1.016407587E-01  0.000000000E+00  0.00000E+00  9.000E+00
       2    -1     0     0   511     0  0.000000000E+00  0.000000000E+00 -1.672343309E+03  1.672343309E+03  0.000000000E+00  0.00000E+00  9.000E+00
      23     2     1     2     0     0  1.653334979E+00  1.139118604E+00 -1.508522983E+03  1.508713954E+03  2.392014519E+01  0.00000E+00  9.000E+00
      11     1     3     3     0     0 -3.599785622E+00 -4.681295665E+00 -1.030274560E+02  1.031965584E+02  5.110410470E-04  0.00000E+00  9.000E+00
     -11     1     3     3     0     0  5.253120602E+00  5.820414269E+00 -1.405495527E+03  1.405517395E+03  5.115491610E-04  0.00000E+00  9.000E+00
      21     1     1     2   511   501 -1.653334979E+00 -1.139118604E+00 -1.637186859E+02  1.637309965E+02  3.429728122E-06  0.00000E+00  9.000E+00
</event>
<event>
      6  10011  1.00000E+00  3.43338E+00 -1.00000E+00  2.80025E-01
       2    -1     0     0   511     0  0.000000000E+00  0.000000000E+00  9.438875683E+00  9.438875683E+00  0.000000000E+00  0.00000E+00  9.000E+00
      -2    -1     0     0     0   501  0.000000000E+00  0.000000000E+00 -2.825183800E+02  2.825183800E+02  0.000000000E+00  0.00000E+00  9.000E+00
      23     2     1     2     0     0  2.561811195E+00  2.285871288E+00 -2.734343262E+02  2.885055919E+02  9.196389357E+01  0.00000E+00  9.000E+00
      11     1     3     3     0     0  1.519309163E+01  1.664614709E+01 -1.047649576E+01  2.485319315E+01  5.109992574E-04  0.00000E+00  9.000E+00
     -11     1     3     3     0     0 -1.263128043E+01 -1.436027580E+01 -2.629578305E+02  2.636523987E+02  5.109728520E-04  0.00000E+00  9.000E+00
      21     1     1     2   511   501 -2.561811195E+00 -2.285871288E+00  3.548219176E-01  3.451663764E+00  7.861965491E-08  0.00000E+00  9.000E+00
</event>
<event>
      6  10011  1.00000E+00  5.63054E+01 -1.00000E+00  1.36167E-01
      21    -1     0     0   501   511  0.000000000E+00  0.000000000E+00  2.308885023E+01  2.308885023E+01  0.000000000E+00  0.00000E+00  9.000E+00
      -3    -1     0     0     0   501  0.000000000E+00  0.000000000E+00 -4.614854859E+02  4.614854859E+02  0.000000000E+00  0.00000E+00  9.000E+00
      23     2     1     2     0     0  4.105876613E+01 -3.852889607E+01 -4.053954238E+02  4.193104250E+02  9.113443244E+01  0.00000E+00  9.000E+00
      11     1     3     3     0     0 -2.226440434E+00  2.684855058E+01 -7.358219955E+01  7.835905689E+01  5.109904167E-04  0.00000E+00  9.000E+00
     -11     1     3     3     0     0  4.328520657E+01 -6.537744665E+01 -3.318132243E+02  3.409513681E+02  5.109820853E-04  0.00000E+00  9.000E+00
      -3     1     1     2     0   511 -4.105876613E+01  3.852889607E+01 -3.300121187E+01  6.526391111E+01  5.864700274E-07  0.00000E+00  9.000E+00
</event>
<event>
      6  10011  1.00000E+00  2.85209E+00 -1.00000E+00  3.03548E-01
      -2    -1     0     0     0   511  0.000000000E+00  0.000000000E+00  4.307670639E+02  4.307670639E+02  0.000000000E+00  0.00000E+00  9.000E+00
       2    -1     0     0   501     0  0.000000000E+00  0.000000000E+00 -7.156992589E-01  7.156992589E-01  0.000000000E+00  0.00000E+00  9.000E+00
      23     2     1     2     0     0  1.673813531E+00  2.309278466E+00  3.348669218E+02  3.362556002E+02  3.039471808E+01  0.00000E+00  9.000E+00
      11     1     3     3     0     0  4.454087575E+00  1.346118462E+01  8.919235810E+01  9.031234208E+01  5.109932230E-04  0.00000E+00  9.000E+00
     -11     1     3     3     0     0 -2.780274045E+00 -1.115190616E+01  2.456745637E+02  2.459432581E+02  5.109926950E-04  0.00000E+00  9.000E+00
      21     1     1     2   501   511 -1.673813531E+00 -2.309278466E+00  9.518444278E+01  9.522716297E+01  6.563280685E-07  0.00000E+00  9.000E+00
</event>
<event>
      6  10011  1.00000E+00  3.16291E+00 -1.00000E+00  2.89936E-01
       2    -1     0     0   501     0  0.000000000E+00  0.000000000E+00  1.742326295E+01  1.742326295E+01  0.000000000E+00  0.00000E+00  9.000E+00
      21    -1     0     0   511   501  0.000000000E+00  0.000000000E+00 -1.207214797E+02  1.207214797E+02  0.000000000E+00  0.00000E+00  9.000E+00
      23     2     1     2     0     0 -2.552793271E+00 -1.867413280E+00 -1.024224207E+02  1.348628218E+02  8.767909922E+01  0.00000E+00  9.000E+00
      11     1     3     3     0     0  2.363518589E+01  3.295853802E+01 -3.040255689E+01  5.068730320E+01  5.109989613E-04  0.00000E+00  9.000E+00
     -11     1     3     3     0     0 -2.618797916E+01 -3.482595130E+01 -7.201986385E+01  8.417551856E+01  5.109987924E-04  0.00000E+00  9.000E+00
       2     1     1     2   511     0  2.552793271E+00  1.867413280E+00 -8.757959905E-01  3.281920850E+00  1.487749554E-08  0.00000E+00  9.000E+00
</event>
<event>
      6  10011  1.00000E+00  1.21335E+01 -1.00000E+00  1.86471E-01
       4    -1     0     0   501     0  0.000000000E+00  0.000000000E+00  2.523400823E+01  2.523400823E+01  0.000000000E+00  0.00000E+00  9.000E+00
      -4    -1     0     0     0   511  0.000000000E+00  0.000000000E+00 -1.096014809E+02  1.096014809E+02  0.000000000E+00  0.00000E+00  9.000E+00
      23     2     1     2     0     0 -9.589692579E+00  7.433755308E+00 -6.989544925E+01  1.159499819E+02  9.171587406E+01  0.00000E+00  9.000E+00
      11     1     3     3     0     0  2.955140436E+01  2.754399587E+01 -5.742686367E+01  7.021254787E+01  5.109988174E-04  0.00000E+00  9.000E+00
     -11     1     3     3     0     0 -3.914109693E+01 -2.011024056E+01 -1.246858559E+01  4.573743403E+01  5.109995185E-04  0.00000E+00  9.000E+00
      21     1     1     2   501   511  9.589692579E+00 -7.433755308E+00 -1.447202344E+01  1.888550725E+01  2.216469464E-07  0.00000E+00  9.000E+00
</event>
<event>
      6  10011  1.00000E+00  1.35932E+01 -1.00000E+00  1.81460E-01
      21    -1     0     0   511   501  0.000000000E+00  0.000000000E+00  1.232758583E+02  1.232758583E+02  0.000000000E+00  0.00000E+00  9.000E+00
       5    -1     0     0   501     0  0.000000000E+00  0.000000000E+00 -2.400805910E+01  2.400805910E+01  0.000000000E+00  0.00000E+00  9.000E+00
      23     2     1     2     0     0 -5.943196790E-01 -1.358019347E+01  7.331065421E+01  1.179829234E+02  9.143710041E+01  0.00000E+00  9.000E+00
      11     1     3     3     0     0 -2.102088420E+01 -4.656011462E-02 -1.533051229E+01  2.601738549E+01  5.109990273E-04  0.00000E+00  9.000E+00
     -11     1     3     3     0     0  2.042656452E+01 -1.353363335E+01  8.864116650E+01  9.196553794E+01  5.110001525E-04  0.00000E+00  9.000E+00
       5     1     1     2   511     0  5.943196790E-01  1.358019347E+01  2.595714495E+01  2.930099392E+01  4.337364309E-07  0.00000E+00  9.000E+00
</event>
<event>
      6  10011  1.00000E+00  9.51155E-01 -1.00000E+00  6.92739E-01
       2    -1     0     0   501     0  0.000000000E+00  0.000000000E+00  1.351915354E+00  1.351915354E+00  0.000000000E+00  0.00000E+00  9.000E+00
      21    -1     0     0   511   501  0.000000000E+00  0.000000000E+00 -7.151911381E+01  7.151911381E+01  0.000000000E+00  0.00000E+00  9.000E+00
      23     2     1     2     0     0 -9.426302859E-01  1.270560234E-01 -6.676816299E+01  6.934142051E+01  1.869064780E+01  0.00000E+00  9.000E+00
      11     1     3     3     0     0  8.884622218E+00 -3.867673230E-02 -3.213549594E+01  3.334108738E+01  5.109992145E-04  0.00000E+00  9.000E+00
     -11     1     3     3     0     0 -9.827252503E+00  1.657327557E-01 -3.463266704E+01  3.600033313E+01  5.109988893E-04  0.00000E+00  9.000E+00
       2     1     1     2   511     0  9.426302859E-01 -1.270560234E-01 -3.399035476E+00  3.529608655E+00  4.060609146E-08  0.00000E+00  9.000E+00
</event>
<event>
      6  10011  1.00000E+00  1.22081E+02 -1.00000E+00  1.20031E-01
      -1    -1     0     0     0   501  0.000000000E+00  0.000000000E+00  8.178573807E+01  8.178573807E+01  0.000000000E+00  0.00000E+00  9.000E+00
      21    -1     0     0   501   511  0.000000000E+00  0.000000000E+00 -2.488416088E+02  2.488416088E+02  0.000000000E+00  0.00000E+00  9.000E+00
      23     2     1     2     0     0  4.205506225E+01 -1.146090276E+02 -4.734683339E+01  1.596474911E+02  9.133313377E+01  0.00000E+00  9.000E+00
      11     1     3     3     0     0  4.940564538E+01 -1.094604356E+02 -9.184819315E+00  1.204444505E+02  5.110012246E-04  0.00000E+00  9.000E+00
     -11     1     3     3     0     0 -7.350583133E+00 -5.148591969E+00 -3.816201408E+01  3.920304058E+01  5.109988662E-04  0.00000E+00  9.000E+00
      -1     1     1     2     0   511 -4.205506225E+01  1.146090276E+02 -1.197090374E+02  1.709798558E+02  2.396633022E-06  0.00000E+00  9.000E+00
</event>
<event>
      6  10011  1.00000E+00  3.93810E+00 -1.00000E+00  2.64967E-01
      21    -1     0     0   511   501  0.000000000E+00  0.000000000E+00  6.308854119E+00  6.308854119E+00  0.000000000E+00  0.00000E+00  9.000E+00
       1    -1     0     0   501     0  0.000000000E+00  0.000000000E+00 -4.339405967E+02  4.339405967E+02  0.000000000E+00  0.00000E+00  9.000E+00
      23     2     1     2     0     0 -1.665348726E+00  3.568642866E+00 -4.267767257E+02  4.362196057E+02  9.018681812E+01  0.00000E+00  9.000E+00
      11     1     3     3     0     0 -4.627000150E+00 -3.387074060E+01 -3.393504616E+02  3.410679873E+02  5.110134480E-04  0.00000E+00  9.000E+00
     -11     1     3     3     0     0  2.961651424E+00  3.743938347E+01 -8.742626409E+01  9.515161831E+01  5.110007699E-04  0.00000E+00  9.000E+00
       1     1     1     2   511     0  1.665348726E+00 -3.568642866E+00 -8.550169019E-01  4.029845181E+00  1.053282703E-07  0.00000E+00  9.000E+00
</event>
<event>
      6  10011  1.00000E+00  9.03173E+00 -1.00000E+00  2.00951E-01
      21    -1     0     0   501   511  0.000000000E+00  0.000000000E+00  1.663607103E+02  1.663607103E+02  0.000000000E+00  0.00000E+00  9.000E+00
      -2    -1     0     0     0   501  0.000000000E+00  0.000000000E+00 -1.252464500E+01  1.252464500E+01  0.000000000E+00  0.00000E+00  9.000E+00
      23     2     1     2     0     0 -4.151294208E+00  8.021152992E+00  1.850423042E+01  4.325247702E+01  3.803679910E+01  0.00000E+00  9.000E+00
      11     1     3     3     0     0  3.574145807E+00  3.730091234E+00  2.904300248E+01  2.949888290E+01  5.109990438E-04  0.00000E+00  9.000E+00
     -11     1     3     3     0     0 -7.725440016E+00  4.291061757E+00 -1.053877206E+01  1.375359412E+01  5.109989877E-04  0.00000E+00  9.000E+00
      -2     1     1     2     0   511  4.151294208E+00 -8.021152992E+00  1.353318349E+02  1.356328783E+02  1.961979936E-06  0.00000E+00  9.000E+00
</event>
<event>
      6  10011  1.00000E+00  1.01560E+00 -1.00000E+00  6.39796E-01
      -2    -1     0     0     0   511  0.000000000E+00  0.000000000E+00  5.595915575E+01  5.595915575E+01  0.000000000E+00  0.00000E+00  9.000E+00
       2    -1     0     0   501     0  0.000000000E+00  0.000000000E+00 -2.793147189E+00  2.793147189E+00  0.000000000E+00  0.00000E+00  9.000E+00
      23     2     1     2     0     0 -5.770315513E-01 -8.357485704E-01  4.217057480E+01  4.771006563E+01  2.229039127E+01  0.00000E+00  9.000E+00
      11     1     3     3     0     0 -1.127907035E+01  9.902547751E-02  1.774542899E+01  2.102682773E+01  5.109990174E-04  0.00000E+00  9.000E+00
     -11     1     3     3     0     0  1.070203880E+01 -9.347740479E-01  2.442514581E+01  2.668323790E+01  5.109989299E-04  0.00000E+00  9.000E+00
      21     1     1     2   501   511  5.770315513E-01  8.357485704E-01  1.099543376E+01  1.104223730E+01  7.552331288E-08  0.00000E+00  9.000E+00
</event>
<event>
      6  10011  1.00000E+00  6.35003E+00 -1.00000E+00  2.21639E-01
      21    -1     0     0   511   501  0.000000000E+00  0.000000000E+00  3.314206314E-01  3.314206314E-01  0.000000000E+00  0.00000E+00  9.000E+00
       2    -1     0     0   501     0  0.000000000E+00  0.000000000E+00 -5.502867273E+02  5.502867273E+02  0.000000000E+00  0.00000E+00  9.000E+00
      23     2     1     2     0     0  6.349518795E+00 -8.047001654E-02 -4.219359707E+02  4.224414213E+02  1.965879466E+01  0.00000E+00  9.000E+00
      11     1     3     3     0     0 -1.801655267E-01  7.336597316E+00 -7.352641690E+01  7.389175936E+01  5.110067464E-04  0.00000E+00  9.000E+00
     -11     1     3     3     0     0  6.529684321E+00 -7.417067332E+00 -3.484095538E+02  3.485496619E+02  5.109961087E-04  0.00000E+00  9.000E+00
       2     1     1     2   511     0 -6.349518795E+00  8.047001654E-02 -1.280193360E+02  1.281767266E+02  6.556510925E-07  0.00000E+00  9.000E+00
</event>
<event>
      6  10011  1.00000E+00  8.15307E+00 -1.00000E+00  2.06535E-01
       1    -1     0     0   501     0  0.000000000E+00  0.000000000E+00  9.719528375E+00  9.719528375E+00  0.000000000E+00  0.00000E+00  9.000E+00
      21    -1     0     0   511   501  0.000000000E+00  0.000000000E+00 -3.132326410E+01  3.132326410E+01  0.000000000E+00  0.00000E+00  9.000E+00
      23     2     1     2     0     0  8.495729714E-01 -8.108682863E+00 -1.753412051E+01  3.193047773E+01  2.540939814E+01  0.00000E+00  9.000E+00
      11     1     3     3     0     0  9.507323972E+00 -3.286436528E+00  1.786283626E+00  1.021668653E+01  5.109989138E-04  0.00000E+00  9.000E+00
     -11     1     3     3     0     0 -8.657751001E+00 -4.822246335E+00 -1.932040413E+01  2.171379120E+01  5.109990103E-04  0.00000E+00  9.000E+00
       1     1     1     2   511     0 -8.495729714E-01  8.108682863E+00 -4.069615215E+00  9.112314744E+00  1.535863595E-07  0.00000E+00  9.000E+00
</event>
<event>
      6  10011  1.00000E+00  3.63569E+00 -1.00000E+00  2.73524E-01
      21    -1     0     0   511   501  0.000000000E+00  0.000000000E+00  6.622745643E+00  6.622745643E+00  0.000000000E+00  0.00000E+00  9.000E+00
       2    -1     0     0   501     0  0.000000000E+00  0.000000000E+00 -1.027238621E+03  1.027238621E+03  0.000000000E+00  0.00000E+00  9.000E+00
      23     2     1     2     0     0 -8.668210479E-01 -3.530848271E+00 -1.024501539E+03  1.028540027E+03  9.098332447E+01  0.00000E+00  9.000E+00
      11     1     3     3     0     0 -1.366799116E+01  4.083629036E+01 -5.972184909E+02  5.987690226E+02  5.111097699E-04  0.00000E+00  9.000E+00
     -11     1     3     3     0     0  1.280117011E+01 -4.436713864E+01 -4.272830485E+02  4.297710047E+02  5.110412981E-04  0.00000E+00  9.000E+00
       2     1     1     2   511     0  8.668210479E-01  3.530848271E+00  3.885663973E+00  5.321339376E+00  5.683258181E-07  0.00000E+00  9.000E+00
</event>
<event>
      6  10011  1.00000E+00  2.27830E+00 -1.00000E+00  3.38393E-01
      -2    -1     0     0     0   511  0.000000000E+00  0.000000000E+00  1.792459009E+00  1.792459009E+00  0.000000000E+00  0.00000E+00  9.000E+00
       2    -1     0     0   501     0  0.000000000E+00  0.000000000E+00 -1.917545078E+03  1.917545078E+03  0.000000000E+00  0.00000E+00  9.000E+00
      23     2     1     2     0     0  1.656280534E+00 -1.564407356E+00 -1.916735204E+03  1.916856386E+03  2.143292242E+01  0.00000E+00  9.000E+00
      11     1     3     3     0     0 -1.769505492E+00 -7.296573164E+00 -2.616259512E+02  2.617336613E+02  5.109920206E-04  0.00000E+00  9.000E+00
     -11     1     3     3     0     0  3.425786025E+00  5.732165808E+00 -1.655109253E+03  1.655122725E+03  5.107863079E-04  0.00000E+00  9.000E+00
      21     1     1     2   501   511 -1.656280534E+00  1.564407356E+00  9.825854977E-01  2.481150911E+00  4.171160169E-07  0.00000E+00  9.000E+00
</event>
<event>
      6  10011  1.00000E+00  3.38792E+00 -1.00000E+00  2.81586E-01
       1    -1     0     0   501     0  0.000000000E+00  0.000000000E+00  1.731789341E+02  1.731789341E+02  0.000000000E+00  0.00000E+00  9.000E+00
      21    -1     0     0   511   501  0.000000000E+00  0.000000000E+00 -1.410241393E+01  1.410241393E+01  0.000000000E+00  0.00000E+00  9.000E+00
      23     2     1     2     0     0 -2.273094628E+00 -2.512184564E+00  1.413158875E+02  1.692004713E+02  9.299000700E+01  0.00000E+00  9.000E+00
      11     1     3     3     0     0 -4.465844194E+01  4.411619987E+00  4.408631920E+01  6.290820589E+01  5.109981096E-04  0.00000E+00  9.000E+00
     -11     1     3     3     0     0  4.238534731E+01 -6.923804551E+00  9.722956832E+01  1.062922654E+02  5.110020392E-04  0.00000E+00  9.000E+00
       1     1     1     2   511     0  2.273094628E+00  2.512184564E+00  1.776063263E+01  1.808087669E+01  6.255826214E-08  0.00000E+00  9.000E+00
</event>
<event>
      6  10011  1.00000E+00  2.37792E+01 -1.00000E+00  1.60358E-01
       2    -1     0     0   501     0  0.000000000E+00  0.000000000E+00  3.640101683E+01  3.640101683E+01  0.000000000E+00  0.00000E+00  9.000E+00
      -2    -1     0     0     0   511  0.000000000E+00  0.000000000E+00 -3.288514903E+01  3.288514903E+01  0.000000000E+00  0.00000E+00  9.000E+00
      23     2     1     2     0     0 -6.011790471E+00 -2.300671237E+01  2.102349633E+01  3.975707012E+01  2.394131968E+01  0.00000E+00  9.000E+00
      11     1     3     3     0     0 -7.339510505E+00 -1.876732239E+01  2.612404694E+01  3.299313009E+01  5.109989200E-04  0.00000E+00  9.000E+00
     -11     1     3     3     0     0  1.327720034E+00 -4.239389972E+00 -5.100550615E+00  6.763940025E+00  5.109989188E-04  0.00000E+00  9.000E+00
      21     1     1     2   501   511  6.011790471E+00  2.300671237E+01 -1.750762853E+01  2.952909575E+01  2.066109273E-07  0.00000E+00  9.000E+00
</event>
<event>
      6  10011  1.00000E+00  4.80308E+01 -1.00000E+00  1.40049E-01
      21    -1     0     0   511   501  0.000000000E+00  0.000000000E+00  1.967972819E+01  1.967972819E+01  0.000000000E+00  0.00000E+00  9.000E+00
       2    -1     0     0   501     0  0.000000000E+00  0.000000000E+00 -3.998941942E+02  3.998941942E+02  0.000000000E+00  0.00000E+00  9.000E+00
      23     2     1     2     0     0 -3.875409748E+00  4.787422469E+01 -3.643093494E+02  3.689781427E+02  3.341567792E+01  0.00000E+00  9.000E+00
      11     1     3     3     0     0 -2.861878125E+00  2.520213338E+01 -2.941050511E+02  2.951967462E+02  5.110073091E-04  0.00000E+00  9.000E+00
     -11     1     3     3     0     0 -1.013531622E+00  2.267209131E+01 -7.020429834E+01  7.378139655E+01  5.109997479E-04  0.00000E+00  9.000E+00
       2     1     1     2   511     0  3.875409748E+00 -4.787422469E+01 -1.590511664E+01  5.059577972E+01  6.703142068E-07  0.00000E+00  9.000E+00
</event>
<event>
      6  10011  1.00000E+00  2.52400E+01 -1.00000E+00  1.58403E-01
      21    -1     0     0   511   501  0.000000000E+00  0.000000000E+00  3.559173924E+01  3.559173924E+01  0.000000000E+00  0.00000E+00  9.000E+00
       3    -1     0     0   501     0  0.000000000E+00  0.000000000E+00 -1.094157811E+02  1.094157811E+02  0.000000000E+00  0.00000E+00  9.000E+00
      23     2     1     2     0     0 -2.368874781E+01 -8.712022092E+00 -7.710498455E+01  1.195551985E+02  8.781349976E+01  0.00000E+00  9.000E+00
      11     1     3     3     0     0  1.470193953E+01 -3.028986898E+01 -6.607029784E+01  7.415461851E+01  5.109974145E-04  0.00000E+00  9.000E+00
     -11     1     3     3     0     0 -3.839068734E+01  2.157784689E+01 -1.103468671E+01  4.540057997E+01  5.109982666E-04  0.00000E+00  9.000E+00
       3     1     1     2   511     0  2.368874781E+01  8.712022092E+00  3.280942720E+00  2.545232184E+01  2.577005073E-07  0.00000E+00  9.000E+00
</event>
<event>
      5  10011  1.00000E+00  8.94427E-01 -1.00000E+00  7.26089E-01
      -2    -1     0     0     0   501  0.000000000E+00  0.000000000E+00  4.036881387E-01  4.036881387E-01  0.000000000E+00  0.00000E+00  9.000E+00
       2    -1     0     0   501     0  0.000000000E+00  0.000000000E+00 -3.923210763E+02  3.923210763E+02  0.000000000E+00  0.00000E+00  9.000E+00
      23     2     1     2     0     0  0.000000000E+00  0.000000000E+00 -3.919173881E+02  3.927247644E+02  2.516945490E+01  0.00000E+00  9.000E+00
      11     1     3     3     0     0  5.615526097E+00 -1.123408957E+01 -1.835106527E+02  1.839399319E+02  5.109976139E-04  0.00000E+00  9.000E+00
     -11     1     3     3     0     0 -5.615526097E+00  1.123408957E+01 -2.084067355E+02  2.087848325E+02  5.110001377E-04  0.00000E+00  9.000E+00
</event>
<event>
      6  10011  1.00000E+00  8.29224E+00 -1.00000E+00  2.05589E-01
      21    -1     0     0   511   501  0.000000000E+00  0.000000000E+00  7.117335058E+01  7.117335058E+01  0.000000000E+00  0.00000E+00  9.000E+00
       2    -1     0     0   501     0  0.000000000E+00  0.000000000E+00 -2.517647958E+01  2.517647958E+01  0.000000000E+00  0.00000E+00  9.000E+00
      23     2     1     2     0     0 -5.850411048E+00 -5.876559604E+00 -1.934167133E+01  3.048719753E+01  2.205918632E+01  0.00000E+00  9.000E+00
      11     1     3     3     0     0 -1.139004235E+01  3.381283301E+00 -5.942685232E+00  1.328463961E+01  5.109989965E-04  0.00000E+00  9.000E+00
     -11     1     3     3     0     0  5.539631301E+00 -9.257842906E+00 -1.339898610E+01  1.720255792E+01  5.109989930E-04  0.00000E+00  9.000E+00
       2     1     1     2   511     0  5.850411048E+00  5.876559604E+00  6.533854233E+01  6.586263263E+01  3.161013638E-07  0.00000E+00  9.000E+00
</event>
<event>
      6  10011  1.00000E+00  1.29234E+00 -1.00000E+00  5.01999E-01
       2    -1     0     0   511     0  0.000000000E+00  0.000000000E+00  5.192147625E+00  5.192147625E+00  0.000000000E+00  0.00000E+00  9.000E+00
      -2    -1     0     0     0   501  0.000000000E+00  0.000000000E+00 -8.905252420E+01  8.905252420E+01  0.000000000E+00  0.00000E+00  9.000E+00
      23     2     1     2     0     0 -1.285871999E+00  1.290964115E-01 -8.392714588E+01  9.295061200E+01  3.992969225E+01  0.00000E+00  9.000E+00
      11     1     3     3     0     0 -2.260446392E+00  1.228776160E+01 -7.869082882E+01  7.967650371E+01  5.110005192E-04  0.00000E+00  9.000E+00
     -11     1     3     3     0     0  9.745743929E-01 -1.215866519E+01 -5.236317065E+00  1.327410829E+01  5.109992169E-04  0.00000E+00  9.000E+00
      21     1     1     2   511   501  1.285871999E+00 -1.290964115E-01  6.676930766E-02  1.294059822E+00  2.359394601E-08  0.00000E+00  9.000E+00
</event>
<event>
      6  10011  1.00000E+00  1.47119E+01 -1.00000E+00  1.78133E-01
      21    -1     0     0   501   511  0.000000000E+00  0.000000000E+00  6.929452793E+01  6.929452793E+01  0.000000000E+00  0.00000E+00  9.000E+00
      -4    -1     0     0     0   501  0.000000000E+00  0.000000000E+00 -6.423082019E+00  6.423082019E+00  0.000000000E+00  0.00000E+00  9.000E+00
      23     2     1     2     0     0  1.470475461E+01  4.571607149E-01  4.914934996E+01  5.559959013E+01  2.142934944E+01  0.00000E+00  9.000E+00
      11     1     3     3     0     0  2.822347261E+00 -8.209855127E+00  7.649798591E+00  1.157094568E+01  5.109988454E-04  0.00000E+00  9.000E+00
     -11     1     3     3     0     0  1.188240735E+01  8.667015842E+00  4.149955137E+01  4.402864445E+01  5.109992266E-04  0.00000E+00  9.000E+00
      -4     1     1     2     0   511 -1.470475461E+01 -4.571607149E-01  1.372209596E+01  2.011801982E+01  2.803141712E-07  0.00000E+00  9.000E+00
</event>
<event>
      6  10011  1.00000E+00  2.47016E+00 -1.00000E+00  3.24904E-01
      21    -1     0     0   501   511  0.000000000E+00  0.000000000E+00  3.162316084E+01  3.162316084E+01  0.000000000E+00  0.00000E+00  9.000E+00
      -2    -1     0     0     0   501  0.000000000E+00  0.000000000E+00 -3.954687334E+01  3.954687334E+01  0.000000000E+00  0.00000E+00  9.000E+00
      23     2     1     2     0     0  2.463168920E+00 -1.857539470E-01 -3.716982012E+01  4.181979540E+01  1.900521123E+01  0.00000E+00  9.000E+00
      11     1     3     3     0     0  1.006053603E+01  3.321474524E+00 -1.770978783E+01  2.063693687E+01  5.109991200E-04  0.00000E+00  9.000E+00
     -11     1     3     3     0     0 -7.597367106E+00 -3.507228471E+00 -1.946003229E+01  2.118285853E+01  5.109989915E-04  0.00000E+00  9.000E+00
      -2     1     1     2     0   511 -2.463168920E+00  1.857539470E-01  2.924610762E+01  2.935023878E+01  2.215216867E-07  0.00000E+00  9.000E+00
</event>
<event>
      6  10011  1.00000E+00  5.02997E+00 -1.00000E+00  2.37976E-01
      -2    -1     0     0     0   501  0.000000000E+00  0.000000000E+00  1.479064520E+01  1.479064520E+01  0.000000000E+00  0.00000E+00  9.000E+00
      21    -1     0     0   501   511  0.000000000E+00  0.000000000E+00 -1.695028080E+01  1.695028080E+01  0.000000000E+00  0.00000E+00  9.000E+00
      23     2     1     2     0     0  6.187824436E-01 -4.991765211E+00  4.821650488E+00  2.313633612E+01  2.206221032E+01  0.00000E+00  9.000E+00
      11     1     3     3     0     0 -5.849770101E+00 -1.024890636E+01 -2.475927989E+00  1.205778220E+01  5.109988795E-04  0.00000E+00  9.000E+00
     -11     1     3     3     0     0  6.468552545E+00  5.257141152E+00  7.297578477E+00  1.107855392E+01  5.109989102E-04  0.00000E+00  9.000E+00
      -2     1     1     2     0   511 -6.187824436E-01  4.991765211E+00 -6.981286082E+00  8.604589879E+00  1.330194702E-08  0.00000E+00  9.000E+00
</event>
<event>
      6  10011  1.00000E+00  1.18879E+00 -1.00000E+00  5.42000E-01
      -2    -1     0     0     0   501  0.000000000E+00  0.000000000E+00  8.101065556E+01  8.101065556E+01  0.000000000E+00  0.00000E+00  9.000E+00
      21    -1     0     0   501   511  0.000000000E+00  0.000000000E+00 -2.712488035E+00  2.712488035E+00  0.000000000E+00  0.00000E+00  9.000E+00
      23     2     1     2     0     0 -6.273397453E-01 -1.009784244E+00  7.963338960E+01  8.193539714E+01  1.924887906E+01  0.00000E+00  9.000E+00
      11     1     3     3     0     0  1.086772409E+00 -7.162839928E+00  1.211802628E+01  1.411856619E+01  5.109988099E-04  0.00000E+00  9.000E+00
     -11     1     3     3     0     0 -1.714112154E+00  6.153055684E+00  6.751536332E+01  6.781683095E+01  5.110019349E-04  0.00000E+00  9.000E+00
      -2     1     1     2     0   511  6.273397453E-01  1.009784244E+00 -1.335222081E+00  1.787746454E+00  9.754520330E-08  0.00000E+00  9.000E+00
</event>
<event>
      6  10011  1.00000E+00  2.00443E+00 -1.00000E+00  3.62409E-01
      -2    -1     0     0     0   501  0.000000000E+00  0.000000000E+00  9.664507158E+01  9.664507158E+01  0.000000000E+00  0.00000E+00  9.000E+00
       2    -1     0     0   511     0  0.000000000E+00  0.000000000E+00 -5.101290283E+00  5.101290283E+00  0.000000000E+00  0.00000E+00  9.000E+00
      23     2     1     2     0     0 -1.896021977E+00 -6.502639212E-01  9.296783085E+01  9.928756955E+01  3.479922630E+01  0.00000E+00  9.000E+00
      11     1     3     3     0     0  7.564784927E+00  1.332144763E+01  2.555467891E+01  2.979477391E+01  5.109985923E-04  0.00000E+00  9.000E+00
     -11     1     3     3     0     0 -9.460806903E+00 -1.397171155E+01  6.741315194E+01  6.949279564E+01  5.109996110E-04  0.00000E+00  9.000E+00
      21     1     1     2   511   501  1.896021977E+00  6.502639212E-01 -1.424049555E+00  2.458792313E+00  1.068872715E-07  0.00000E+00  9.000E+00
</event>
<event>
      6  10011  1.00000E+00  4.43909E+00 -1.00000E+00  2.53149E-01
      -2    -1     0     0     0   511  0.000000000E+00  0.000000000E+00  6.517056812E+00  6.517056812E+00  0.000000000E+00  0.00000E+00  9.000E+00
       2    -1     0     0   501     0  0.000000000E+00  0.000000000E+00 -1.990868719E+01  1.990868719E+01  0.000000000E+00  0.00000E+00  9.000E+00
      23     2     1     2     0     0  4.186792906E+00 -1.475213684E+00 -1.257344960E+01  2.191188644E+01  1.738774403E+01  0.00000E+00  9.000E+00
      11     1     3     3     0     0 -6.734298570E+00 -1.275420707E+00 -3.415763983E+00  7.657997066E+00  5.109988919E-04  0.00000E+00  9.000E+00
     -11     1     3     3     0     0  1.092109148E+01 -1.997929778E-01 -9.157685613E+00  1.425388938E+01  5.109989155E-04  0.00000E+00  9.000E+00
      21     1     1     2   501   511 -4.186792906E+00  1.475213684E+00 -8.181807776E-01  4.513857557E+00  2.605519507E-08  0.00000E+00  9.000E+00
</event>
<event>
      6  10011  1.00000E+00  3.88039E+01 -1.00000E+00  1.45631E-01
      -2    -1     0     0     0   501  0.000000000E+00  0.000000000E+00  4.466324308E+01  4.466324308E+01  0.000000000E+00  0.00000E+00  9.000E+00
       2    -1     0     0   511     0  0.000000000E+00  0.000000000E+00 -1.252939666E+02  1.252939666E+02  0.000000000E+00  0.00000E+00  9.000E+00
      23     2     1     2     0     0  3.410762699E+01 -1.850428888E+01  2.109688601E+01  6.108000608E+01  4.218944912E+01  0.00000E+00  9.000E+00
      11     1     3     3     0     0 -3.681029625E+00 -4.089126017E+00 -9.080729553E+00  1.061746581E+01  5.109988424E-04  0.00000E+00  9.000E+00
     -11     1     3     3     0     0  3.778865662E+01 -1.441516286E+01  3.017761556E+01  5.046254027E+01  5.109980939E-04  0.00000E+00  9.000E+00
      21     1     1     2   511   501 -3.410762699E+01  1.850428888E+01 -1.017276095E+02  1.088772036E+02  1.088090912E-06  0.00000E+00  9.000E+00
</event>
<event>
      6  10011  1.00000E+00  8.21815E+00 -1.00000E+00  2.06090E-01
      -2    -1     0     0     0   501  0.000000000E+00  0.000000000E+00  2.518560710E+02  2.518560710E+02  0.000000000E+00  0.00000E+00  9.000E+00
      21    -1     0     0   501   511  0.000000000E+00  0.000000000E+00 -8.150655113E+00  8.150655113E+00  0.000000000E+00  0.00000E+00  9.000E+00
      23     2     1     2     0     0  8.192874932E+00 -6.440044820E-01  2.363728609E+02  2.489929028E+02  7.783185934E+01  0.00000E+00  9.000E+00
      11     1     3     3     0     0  1.557486721E+01  1.020005101E+01  2.350745031E+02  2.358106009E+02  5.109875257E-04  0.00000E+00  9.000E+00
     -11     1     3     3     0     0 -7.381992275E+00 -1.084405550E+01  1.298357883E+00  1.318230189E+01  5.109988989E-04  0.00000E+00  9.000E+00
      -2     1     1     2     0   511 -8.192874932E+00  6.440044820E-01  7.332554967E+00  1.101382330E+01  6.710694557E-08  0.00000E+00  9.000E+00
</event>
<event>
      6  10011  1.00000E+00  1.84974E+00 -1.00000E+00  3.79441E-01
       2    -1     0     0   501     0  0.000000000E+00  0.000000000E+00  5.725242410E+01  5.725242410E+01  0.000000000E+00  0.00000E+00  9.000E+00
      -2    -1     0     0     0   511  0.000000000E+00  0.000000000E+00 -2.384288854E+00  2.384288854E+00  0.000000000E+00  0.00000E+00  9.000E+00
      23     2     1     2     0     0 -2.489023679E-01 -1.832913567E+00  5.156846508E+01  5.585394311E+01  2.137603436E+01  0.00000E+00  9.000E+00
      11     1     3     3     0     0  8.408057154E+00 -1.187910724E+00  4.234408819E+01  4.318713190E+01  5.109988742E-04  0.00000E+00  9.000E+00
     -11     1     3     3     0     0 -8.656959522E+00 -6.450028434E-01  9.224376896E+00  1.266681121E+01  5.109990129E-04  0.00000E+00  9.000E+00
      21     1     1     2   501   511  2.489023679E-01  1.832913567E+00  3.299670168E+00  3.782769852E+00  2.619318871E-08  0.00000E+00  9.000E+00
</event>
<event>
      6  10011  1.00000E+00  9.99753E+00 -1.00000E+00  1.95711E-01
      -1    -1     0     0     0   511  0.000000000E+00  0.000000000E+00  1.682194275E+00  1.682194275E+00  0.000000000E+00  0.00000E+00  9.000E+00
       1    -1     0     0   501     0  0.000000000E+00  0.000000000E+00 -1.612519287E+03  1.612519287E+03  0.000000000E+00  0.00000E+00  9.000E+00
      23     2     1     2     0     0  2.547660131E+00  9.667472607E+00 -1.493282252E+03  1.496222284E+03  9.321633993E+01  0.00000E+00  9.000E+00
      11     1     3     3     0     0  1.725297997E+01  2.144017837E+01 -1.428292249E+03  1.428557348E+03  5.109116007E-04  0.00000E+00  9.000E+00
     -11     1     3     3     0     0 -1.470531984E+01 -1.177270576E+01 -6.499000290E+01  6.766493560E+01  5.109889171E-04  0.00000E+00  9.000E+00
      21     1     1     2   501   511 -2.547660131E+00 -9.667472607E+00 -1.175548406E+02  1.179791980E+02  8.739756524E-07  0.00000E+00  9.000E+00
</event>
<event>
      6  10011  1.00000E+00  5.29958E+00 -1.00000E+00  2.34099E-01
      -1    -1     0     0     0   501  0.000000000E+00  0.000000000E+00  1.561627067E+01  1.561627067E+01  0.000000000E+00  0.00000E+00  9.000E+00
       1    -1     0     0   511     0  0.000000000E+00  0.000000000E+00 -1.768358741E+02  1.768358741E+02  0.000000000E+00  0.00000E+00  9.000E+00
      23     2     1     2     0     0 -3.226086987E+00  4.204514187E+00 -1.258594094E+02  1.566970206E+02  9.319484843E+01  0.00000E+00  9.000E+00
      11     1     3     3     0     0 -1.236371109E+01 -2.253207490E+01 -1.258443980E+02  1.284420813E+02  5.110011832E-04  0.00000E+00  9.000E+00
     -11     1     3     3     0     0  9.137624101E+00  2.673658909E+01 -1.501138469E-02  2.825493932E+01  5.109987483E-04  0.00000E+00  9.000E+00
      21     1     1     2   511   501  3.226086987E+00 -4.204514187E+00 -3.536019407E+01  3.575512413E+01  3.829627417E-07  0.00000E+00  9.000E+00
</event>
<event>
      6  10011  1.00000E+00  9.82291E+00 -1.00000E+00  1.96600E-01
       1    -1     0     0   511     0  0.000000000E+00  0.000000000E+00  9.136275768E+01  9.136275768E+01  0.000000000E+00  0.00000E+00  9.000E+00
      -1    -1     0     0     0   501  0.000000000E+00  0.000000000E+00 -3.641252500E+01  3.641252500E+01  0.000000000E+00  0.00000E+00  9.000E+00
      23     2     1     2     0     0  9.764059414E+00 -1.073635838E+00  2.622810534E+01  9.741988531E+01  9.330718619E+01  0.00000E+00  9.000E+00
      11     1     3     3     0     0  2.382483464E+00  3.796881032E+01  4.015586221E+01  5.531545945E+01  5.109996423E-04  0.00000E+00  9.000E+00
     -11     1     3     3     0     0  7.381575949E+00 -3.904244616E+01 -1.392775687E+01  4.210442586E+01  5.109995021E-04  0.00000E+00  9.000E+00
      21     1     1     2   511   501 -9.764059414E+00  1.073635838E+00  2.872212734E+01  3.035539736E+01  4.020553101E-07  0.00000E+00  9.000E+00
</event>
<event>
      6  10011  1.00000E+00  2.15709E+00 -1.00000E+00  3.48216E-01
      -2    -1     0     0     0   501  0.000000000E+00  0.000000000E+00  5.865360272E+00  5.865360272E+00  0.000000000E+00  0.00000E+00  9.000E+00
       2    -1     0     0   511     0  0.000000000E+00  0.000000000E+00 -6.955932773E+02  6.955932773E+02  0.000000000E+00  0.00000E+00  9.000E+00
      23     2     1     2     0     0 -9.076102554E-01  1.956852392E+00 -4.726298026E+02  4.843498070E+02  1.058827285E+02  0.00000E+00  9.000E+00
      11     1     3     3     0     0 -4.605933970E+01 -2.585909623E+01 -2.283566761E+02  2.343862777E+02  5.110469709E-04  0.00000E+00  9.000E+00
     -11     1     3     3     0     0  4.515172944E+01  2.781594862E+01 -2.442731265E+02  2.499635293E+02  5.110324761E-04  0.00000E+00  9.000E+00
      21     1     1     2   511   501  9.076102554E-01 -1.956852392E+00 -2.170981145E+02  2.171088307E+02  8.554875907E-07  0.00000E+00  9.000E+00
</event>
<event>
      6  10011  1.00000E+00  1.92345E+01 -1.00000E+00  1.67737E-01
      21    -1     0     0   511   501  0.000000000E+00  0.000000000E+00  2.378928029E+01  2.378928029E+01  0.000000000E+00  0.00000E+00  9.000E+00
       1    -1     0     0   501     0  0.000000000E+00  0.000000000E+00 -1.375266727E+02  1.375266727E+02  0.000000000E+00  0.00000E+00  9.000E+00
      23     2     1     2     0     0 -5.624639173E+00 -1.839376875E+01 -1.043111761E+02  1.398958491E+02  9.121436209E+01  0.00000E+00  9.000E+00
      11     1     3     3     0     0  2.479992263E+01  2.454034548E+01 -1.917849418E+01  3.981305512E+01  5.109995574E-04  0.00000E+00  9.000E+00
     -11     1     3     3     0     0 -3.042456180E+01 -4.293411423E+01 -8.513268194E+01  1.000827940E+02  5.110023790E-04  0.00000E+00  9.000E+00
       1     1     1     2   511     0  5.624639173E+00  1.839376875E+01 -9.426216269E+00  2.142010382E+01  7.136629544E-08  0.00000E+00  9.000E+00
</event>
<event>
      6  10011  1.00000E+00  2.07904E+01 -1.00000E+00  1.64951E-01
      21    -1     0     0   511   501  0.000000000E+00  0.000000000E+00  6.041188659E+01  6.041188659E+01  0.000000000E+00  0.00000E+00  9.000E+00
       3    -1     0     0   501     0  0.000000000E+00  0.000000000E+00 -6.067884656E+01  6.067884656E+01  0.000000000E+00  0.00000E+00  9.000E+00
      23     2     1     2     0     0  1.664209449E+01  1.246118534E+01  1.807293626E+01  9.336723693E+01  8.921081469E+01  0.00000E+00  9.000E+00
      11     1     3     3     0     0 -2.028761968E+01 -8.193129653E+00 -2.483987326E+01  3.310187592E+01  5.109979331E-04  0.00000E+00  9.000E+00
     -11     1     3     3     0     0  3.692971417E+01  2.065431500E+01  4.291280952E+01  6.026536101E+01  5.109987465E-04  0.00000E+00  9.000E+00
       3     1     1     2   511     0 -1.664209449E+01 -1.246118534E+01 -1.833989623E+01  2.772349622E+01  4.487699373E-07  0.00000E+00  9.000E+00
</event>
<event>
      6  10011  1.00000E+00  5.56849E+00 -1.00000E+00  2.30544E-01
      21    -1     0     0   501   511  0.000000000E+00  0.000000000E+00  2.912448314E+01  2.912448314E+01  0.000000000E+00  0.00000E+00  9.000E+00
      -1    -1     0     0     0   501  0.000000000E+00  0.000000000E+00 -7.185737077E+00  7.185737077E+00  0.000000000E+00  0.00000E+00  9.000E+00
      23     2     1     2     0     0  5.563371722E+00  2.387867255E-01  1.148972977E+01  2.447003164E+01  2.087487567E+01  0.00000E+00  9.000E+00
      11     1     3     3     0     0  7.891793809E+00  8.544814052E+00  1.070541510E+01  1.580823107E+01  5.109989244E-04  0.00000E+00  9.000E+00
     -11     1     3     3     0     0 -2.328422086E+00 -8.306027326E+00  7.843146644E-01  8.661800570E+00  5.109989299E-04  0.00000E+00  9.000E+00
      -1     1     1     2     0   511 -5.563371722E+00 -2.387867255E-01  1.044901629E+01  1.184018858E+01  1.356281967E-07  0.00000E+00  9.000E+00
</event>
<event>
      6  10011  1.00000E+00  3.38314E+00 -1.00000E+00  2.81753E-01
      -1    -1     0     0     0   501  0.000000000E+00  0.000000000E+00  2.049915088E+02  2.049915088E+02  0.000000000E+00  0.00000E+00  9.000E+00
       1    -1     0     0   511     0  0.000000000E+00  0.000000000E+00 -1.205610794E+01  1.205610794E+01  0.000000000E+00  0.00000E+00  9.000E+00
      23     2     1     2     0     0 -4.455331670E-01 -3.353674409E+00  1.892247781E+02  2.120262272E+02  9.559110176E+01  0.00000E+00  9.000E+00
      11     1     3     3     0     0 -3.421407023E+01 -1.530877361E+01  2.778011078E+01  4.665507160E+01  5.109988750E-04  0.00000E+00  9.000E+00
     -11     1     3     3     0     0  3.376853706E+01  1.195509920E+01  1.614446673E+02  1.653711556E+02  5.109874145E-04  0.00000E+00  9.000E+00
      21     1     1     2   511   501  4.455331670E-01  3.353674409E+00  3.710622740E+00  5.021389545E+00  2.097027423E-08  0.00000E+00  9.000E+00
</event>
<event>
      6  10011  1.00000E+00  3.60906E+01 -1.00000E+00  1.47633E-01
      21    -1     0     0   501   511  0.000000000E+00  0.000000000E+00  2.891545879E+01  2.891545879E+01  0.000000000E+00  0.00000E+00  9.000E+00
      -3    -1     0     0     0   501  0.000000000E+00  0.000000000E+00 -3.121329635E+02  3.121329635E+02  0.000000000E+00  0.00000E+00  9.000E+00
      23     2     1     2     0     0  1.544286537E-01 -3.609030087E+01 -2.870406187E+02  3.047558630E+02  9.581902497E+01  0.00000E+00  9.000E+00
      11     1     3     3     0     0  4.763275069E+01 -1.989534926E+01 -1.620929570E+02  1.701141693E+02  5.110069754E-04  0.00000E+00  9.000E+00
     -11     1     3     3     0     0 -4.747832204E+01 -1.619495161E+01 -1.249476617E+02  1.346416937E+02  5.110075168E-04  0.00000E+00  9.000E+00
      -3     1     1     2     0   511 -1.544286537E-01  3.609030087E+01  3.823113979E+00  3.629255937E+01  4.656594247E-07  0.00000E+00  9.000E+00
</event>
<event>
      6  10011  1.00000E+00  2.56555E+00 -1.00000E+00  3.18970E-01
      -2    -1     0     0     0   501  0.000000000E+00  0.000000000E+00  1.380285146E-01  1.380285146E-01  0.000000000E+00  0.00000E+00  9.000E+00
       2    -1     0     0   511     0  0.000000000E+00  0.000000000E+00 -9.328457926E+02  9.328457926E+02  0.000000000E+00  0.00000E+00  9.000E+00
      23     2     1     2     0     0 -2.191791522E+00  1.333451344E+00 -8.236017096E+02  8.238476073E+02  1.996301428E+01  0.00000E+00  9.000E+00
      11     1     3     3     0     0 -6.179242639E+00  8.364045303E+00 -2.932763866E+02  2.934606946E+02  5.110391639E-04  0.00000E+00  9.000E+00
     -11     1     3     3     0     0  3.987451117E+00 -7.030593959E+00 -5.303253229E+02  5.303869127E+02  5.111447460E-04  0.00000E+00  9.000E+00
      21     1     1     2   511   501  2.191791522E+00 -1.333451344E+00 -1.091060546E+02  1.091362139E+02  1.526623782E-06  0.00000E+00  9.000E+00
</event>
<event>
      6  10011  1.00000E+00  1.70757E+01 -1.00000E+00  1.72195E-01
      21    -1     0     0   511   501  0.000000000E+00  0.000000000E+00  4.022851562E+02  4.022851562E+02  0.000000000E+00  0.00000E+00  9.000E+00
       3    -1     0     0   501     0  0.000000000E+00  0.000000000E+00 -1.054697869E+01  1.054697869E+01  0.000000000E+00  0.00000E+00  9.000E+00
      23     2     1     2     0     0 -1.474729186E+01  8.608049076E+00  1.333821631E+01  3.404708798E+01  2.626242676E+01  0.00000E+00  9.000E+00
      11     1     3     3     0     0 -1.512087489E+01 -2.499949687E+00 -1.620262696E+00  1.541154948E+01  5.109988586E-04  0.00000E+00  9.000E+00
     -11     1     3     3     0     0  3.735830289E-01  1.110799876E+01  1.495847900E+01  1.863553850E+01  5.109988704E-04  0.00000E+00  9.000E+00
       3     1     1     2   511     0  1.474729186E+01 -8.608049076E+00  3.783999612E+02  3.787850469E+02  1.933249800E-06  0.00000E+00  9.000E+00
</event>
<event>
      6  10011  1.00000E+00  1.38068E+01 -1.00000E+00  1.80794E-01
      21    -1     0     0   501   511  0.000000000E+00  0.000000000E+00  5.634634897E+00  5.634634897E+00  0.000000000E+00  0.00000E+00  9.000E+00
      -2    -1     0     0     0   501  0.000000000E+00  0.000000000E+00 -6.826360786E+01  6.826360786E+01  0.000000000E+00  0.00000E+00  9.000E+00
      23     2     1     2     0     0  6.415410623E+00  1.222580038E+01 -4.086206372E+01  4.812178011E+01  2.133939506E+01  0.00000E+00  9.000E+00
      11     1     3     3     0     0 -1.616650385E+00  6.738945741E+00 -3.702026753E+01  3.766333969E+01  5.109985020E-04  0.00000E+00  9.000E+00
     -11     1     3     3     0     0  8.032061008E+00  5.486854640E+00 -3.841796188E+00  1.045844042E+01  5.109988319E-04  0.00000E+00  9.000E+00
      -2     1     1     2     0   511 -6.415410623E+00 -1.222580038E+01 -2.176690925E+01  2.577646265E+01  1.703073002E-07  0.00000E+00  9.000E+00
</event>
<event>
      6  10011  1.00000E+00  9.43340E+00 -1.00000E+00  1.98672E-01
      -2    -1     0     0     0   501  0.000000000E+00  0.000000000E+00  1.135064709E+01  1.135064709E+01  0.000000000E+00  0.00000E+00  9.000E+00
      21    -1     0     0   501   511  0.000000000E+00  0.000000000E+00 -3.071115628E+01  3.071115628E+01  0.000000000E+00  0.00000E+00  9.000E+00
      23     2     1     2     0     0 -8.562781961E+00 -3.958260083E+00 -1.240333981E+01  3.034040142E+01  2.603282663E+01  0.00000E+00  9.000E+00
      11     1     3     3     0     0 -8.698599214E+00  6.874282436E-01  6.495830322E+00  1.087814312E+01  5.109989156E-04  0.00000E+00  9.000E+00
     -11     1     3     3     0     0  1.358172535E-01 -4.645688326E+00 -1.889917013E+01  1.946225830E+01  5.109989770E-04  0.00000E+00  9.000E+00
      -2     1     1     2     0   511  8.562781961E+00  3.958260083E+00 -6.957169388E+00  1.172140195E+01  1.179364779E-07  0.00000E+00  9.000E+00
</event>
<event>
      6  10011  1.00000E+00  3.92532E+00 -1.00000E+00  2.65304E-01
      -1    -1     0     0     0   501  0.000000000E+00  0.000000000E+00  3.028592622E-01  3.028592622E-01  0.000000000E+00  0.00000E+00  9.000E+00
       1    -1     0     0   511     0  0.000000000E+00  0.000000000E+00 -3.869629504E+02  3.869629504E+02  0.000000000E+00  0.00000E+00  9.000E+00
      23     2     1     2     0     0  1.281008201E+00 -3.710406803E+00 -2.865202027E+02  2.870490179E+02  1.696773422E+01  0.00000E+00  9.000E+00
      11     1     3     3     0     0 -2.705450952E+00 -6.577497867E+00 -5.275584222E+01  5.323308963E+01  5.110004842E-04  0.00000E+00  9.000E+00
     -11     1     3     3     0     0  3.986459154E+00  2.867091064E+00 -2.337643605E+02  2.338159282E+02  5.110103021E-04  0.00000E+00  9.000E+00
      21     1     1     2   511   501 -1.281008201E+00  3.710406803E+00 -1.001398885E+02  1.002167918E+02  1.632340424E-06  0.00000E+00  9.000E+00
</event>
<event>
      6  10011  1.00000E+00  6.17830E+00 -1.00000E+00  2.23438E-01
      21    -1     0     0   511   501  0.000000000E+00  0.000000000E+00  1.477695863E+01  1.477695863E+01  0.000000000E+00  0.00000E+00  9.000E+00
       1    -1     0     0   501     0  0.000000000E+00  0.000000000E+00 -7.319131322E+02  7.319131322E+02  0.000000000E+00  0.00000E+00  9.000E+00
      23     2     1     2     0     0 -6.175259105E+00  1.938359771E-01 -7.283162361E+02  7.339164776E+02  9.028114407E+01  0.00000E+00  9.000E+00
      11     1     3     3     0     0 -8.870847563E+00  2.699492870E+01 -7.753141993E+01  8.257444634E+01  5.109966288E-04  0.00000E+00  9.000E+00
     -11     1     3     3     0     0  2.695588458E+00 -2.680109272E+01 -6.507848162E+02  6.513420313E+02  5.110500714E-04  0.00000E+00  9.000E+00
       1     1     1     2   511     0  6.175259105E+00 -1.938359771E-01  1.118006250E+01  1.277361323E+01  1.156434158E-06  0.00000E+00  9.000E+00
</event>
<event>
      6  10011  1.00000E+00  2.04250E+00 -1.00000E+00  3.58654E-01
       2    -1     0     0   511     0  0.000000000E+00  0.000000000E+00  1.003503966E+02  1.003503966E+02  0.000000000E+00  0.00000E+00  9.000E+00
      -2    -1     0     0     0   501  0.000000000E+00  0.000000000E+00 -8.734294218E-01  8.734294218E-01  0.000000000E+00  0.00000E+00  9.000E+00
      23     2     1     2     0     0 -1.599316301E+00 -1.270436002E+00  8.672510953E+01  8.830942733E+01  1.652690264E+01  0.00000E+00  9.000E+00
      11     1     3     3     0     0  3.608108852E+00  6.414815667E+00  3.982929466E+01  4.050359271E+01  5.109987713E-04  0.00000E+00  9.000E+00
     -11     1     3     3     0     0 -5.207425153E+00 -7.685251670E+00  4.689581488E+01  4.780583461E+01  5.109989138E-04  0.00000E+00  9.000E+00
      21     1     1     2   511   501  1.599316301E+00  1.270436002E+00  1.275185768E+01  1.291439873E+01  3.094458529E-08  0.00000E+00  9.000E+00
</event>
<event>
      6  10011  1.00000E+00  4.64690E+00 -1.00000E+00  2.48921E-01
       2    -1     0     0   501     0  0.000000000E+00  0.000000000E+00  1.211553670E+03  1.211553670E+03  0.000000000E+00  0.00000E+00  9.000E+00
      21    -1     0     0   511   501  0.000000000E+00  0.000000000E+00 -1.324243124E-01  1.324243124E-01  0.000000000E+00  0.00000E+00  9.000E+00
      23     2     1     2     0     0 -1.562993997E+00 -4.376157777E+00  1.091441195E+03  1.091616089E+03  1.897917422E+01  0.00000E+00  9.000E+00
      11     1     3     3     0     0 -4.702421314E+00  2.732978420E+00  1.023852983E+02  1.025296603E+02  5.110294997E-04  0.00000E+00  9.000E+00
     -11     1     3     3     0     0  3.139427318E+00 -7.109136196E+00  9.890558972E+02  9.890864288E+02  5.113116421E-04  0.00000E+00  9.000E+00
       2     1     1     2   511     0  1.562993997E+00  4.376157777E+00  1.199800499E+02  1.200700049E+02  1.213507239E-06  0.00000E+00  9.000E+00
</event>
<event>
      6  10011  1.00000E+00  1.39962E+01 -1.00000E+00  1.80216E-01
      21    -1     0     0   501   511  0.000000000E+00  0.000000000E+00  4.637099981E+02  4.637099981E+02  0.000000000E+00  0.00000E+00  9.000E+00
      -2    -1     0     0     0   501  0.000000000E+00  0.000000000E+00 -5.230436701E+00  5.230436701E+00  0.000000000E+00  0.00000E+00  9.000E+00
      23     2     1     2     0     0 -3.886838575E+00  1.344562680E+01  3.432670386E+01  4.455671815E+01  2.472015657E+01  0.00000E+00  9.000E+00
      11     1     3     3     0     0 -6.014320601E-01  1.649633457E+01  8.931232159E+00  1.876852906E+01  5.109987017E-04  0.00000E+00  9.000E+00
     -11     1     3     3     0     0 -3.285406515E+00 -3.050707772E+00  2.539547170E+01  2.578818910E+01  5.109986363E-04  0.00000E+00  9.000E+00
      -2     1     1     2     0   511  3.886838575E+00 -1.344562680E+01  4.241528576E+02  4.243837167E+02  2.910269646E-06  0.00000E+00  9.000E+00
</event>
<event>
      6  10011  1.00000E+00  9.53557E+00 -1.00000E+00  1.98115E-01
       1    -1     0     0   511     0  0.000000000E+00  0.000000000E+00  1.173697043E+01  1.173697043E+01  0.000000000E+00  0.00000E+00  9.000E+00
      -1    -1     0     0     0   501  0.000000000E+00  0.000000000E+00 -2.214891926E+02  2.214891926E+02  0.000000000E+00  0.00000E+00  9.000E+00
      23     2     1     2     0     0 -9.436805356E+00  1.368847335E+00 -2.005632922E+02  2.199836756E+02  8.986799392E+01  0.00000E+00  9.000E+00
      11     1     3     3     0     0  2.310964245E+00 -1.089776180E+00 -2.065537038E+02  2.065695058E+02  5.109960461E-04  0.00000E+00  9.000E+00
     -11     1     3     3     0     0 -1.174776960E+01  2.458623515E+00  5.990411633E+00  1.341416982E+01  5.109989868E-04  0.00000E+00  9.000E+00
      21     1     1     2   511   501  9.436805356E+00 -1.368847335E+00 -9.188930012E+00  1.324248742E+01  1.536428230E-07  0.00000E+00  9.000E+00
</event>
<event>
      6  10011  1.00000E+00  1.32918E+01 -1.00000E+00  1.82427E-01
      -2    -1     0     0     0   501  0.000000000E+00  0.000000000E+00  4.670794132E+01  4.670794132E+01  0.000000000E+00  0.00000E+00  9.000E+00
      21    -1     0     0   501   511  0.000000000E+00  0.000000000E+00 -3.573420298E+01  3.573420298E+01  0.000000000E+00  0.00000E+00  9.000E+00
      23     2     1     2     0     0 -7.809170275E+00  1.075590343E+01 -2.689172730E+01  4.231153147E+01  2.984004188E+01  0.00000E+00  9.000E+00
      11     1     3     3     0     0  1.914218924E-01 -1.020146254E+01 -9.266738206E+00  1.378328399E+01  5.109988757E-04  0.00000E+00  9.000E+00
     -11     1     3     3     0     0 -8.000592168E+00  2.095736597E+01 -1.762498909E+01  2.852824748E+01  5.109989404E-04  0.00000E+00  9.000E+00
      -2     1     1     2     0   511  7.809170275E+00 -1.075590343E+01  3.786546563E+01  4.013061283E+01  2.955918673E-07  0.00000E+00  9.000E+00
</event>
<event>
      6  10011  1.00000E+00  3.63504E+00 -1.00000E+00  2.73544E-01
       2    -1     0     0   501     0  0.000000000E+00  0.000000000E+00  2.509956628E+02  2.509956628E+02  0.000000000E+00  0.00000E+00  9.000E+00
      -2    -1     0     0     0   511  0.000000000E+00  0.000000000E+00 -1.076711055E+01  1.076711055E+01  0.000000000E+00  0.00000E+00  9.000E+00
      23     2     1     2     0     0 -3.069025584E+00 -1.947966109E+00  2.406286480E+02  2.581057847E+02  9.329113762E+01  0.00000E+00  9.000E+00
      11     1     3     3     0     0  6.337551116E+00 -2.407996174E+01  2.307796003E+02  2.321190062E+02  5.109806322E-04  0.00000E+00  9.000E+00
     -11     1     3     3     0     0 -9.406576700E+00  2.213199563E+01  9.849047672E+00  2.598677848E+01  5.109993644E-04  0.00000E+00  9.000E+00
      21     1     1     2   501   511  3.069025584E+00  1.947966109E+00 -4.000956866E-01  3.656988728E+00  1.152862055E-07  0.00000E+00  9.000E+00
</event>
<event>
      6  10011  1.00000E+00  5.95365E+00 -1.00000E+00  2.25917E-01
       4    -1     0     0   501     0  0.000000000E+00  0.000000000E+00  1.164875865E+00  1.164875865E+00  0.000000000E+00  0.00000E+00  9.000E+00
      21    -1     0     0   511   501  0.000000000E+00  0.000000000E+00 -1.394987960E+02  1.394987960E+02  0.000000000E+00  0.00000E+00  9.000E+00
      23     2     1     2     0     0 -5.896406018E+00  8.236290654E-01 -1.187209481E+02  1.201669736E+02  1.760659115E+01  0.00000E+00  9.000E+00
      11     1     3     3     0     0  3.780470612E+00  5.343674342E-01 -8.494992938E+01  8.503568668E+01  5.109964781E-04  0.00000E+00  9.000E+00
     -11     1     3     3     0     0 -9.676876629E+00  2.892616312E-01 -3.377101875E+01  3.513128693E+01  5.109985697E-04  0.00000E+00  9.000E+00
       4     1     1     2   511     0  5.896406018E+00 -8.236290654E-01 -1.961297203E+01  2.049669829E+01  8.688795410E-08  0.00000E+00  9.000E+00
</event>
<event>
      6  10011  1.00000E+00  9.71416E+00 -1.00000E+00  1.97165E-01
      21    -1     0     0   501   511  0.000000000E+00  0.000000000E+00  1.660113740E+02  1.660113740E+02  0.000000000E+00  0.00000E+00  9.000E+00
      -3    -1     0     0     0   501  0.000000000E+00  0.000000000E+00 -1.978690738E+01  1.978690738E+01  0.000000000E+00  0.00000E+00  9.000E+00
      23     2     1     2     0     0  8.114934247E+00  5.339724305E+00  8.457892428E+01  1.233920501E+02  8.931762861E+01  0.00000E+00  9.000E+00
      11     1     3     3     0     0  2.437203646E+01 -1.021250998E+00  9.824110068E+01  1.012242707E+02  5.109979442E-04  0.00000E+00  9.000E+00
     -11     1     3     3     0     0 -1.625710222E+01  6.360975302E+00 -1.366217640E+01  2.216777940E+01  5.109991498E-04  0.00000E+00  9.000E+00
      -3     1     1     2     0   511 -8.114934247E+00 -5.339724305E+00  6.164554229E+01  6.240623125E+01  4.094431300E-07  0.00000E+00  9.000E+00
</event>
<event>
      6  10011  1.00000E+00  1.19815E+01 -1.00000E+00  1.87045E-01
      -1    -1     0     0     0   511  0.000000000E+00  0.000000000E+00  4.344771039E+00  4.344771039E+00  0.000000000E+00  0.00000E+00  9.000E+00
       1    -1     0     0   501     0  0.000000000E+00  0.000000000E+00 -7.762842203E+02  7.762842203E+02  0.000000000E+00  0.00000E+00  9.000E+00
      23     2     1     2     0     0 -1.773765178E+00  1.184952538E+01 -7.260708014E+02  7.332212879E+02  1.014450137E+02  0.00000E+00  9.000E+00
      11     1     3     3     0     0  1.596650300E+01  4.397260864E+01 -6.025881783E+02  6.044013833E+02  5.110687574E-04  0.00000E+00  9.000E+00
     -11     1     3     3     0     0 -1.774026818E+01 -3.212308325E+01 -1.234826231E+02  1.288199046E+02  5.110257213E-04  0.00000E+00  9.000E+00
      21     1     1     2   501   511  1.773765178E+00 -1.184952538E+01 -4.586864785E+01  4.740770349E+01  5.356133209E-07  0.00000E+00  9.000E+00
</event>
<event>
      6  10011  1.00000E+00  6.75019E+01 -1.00000E+00  1.31999E-01
      21    -1     0     0   511   501  0.000000000E+00  0.000000000E+00  3.115716326E+01  3.115716326E+01  0.000000000E+00  0.00000E+00  9.000E+00
       3    -1     0     0   501     0  0.000000000E+00  0.000000000E+00 -2.758631772E+02  2.758631772E+02  0.000000000E+00  0.00000E+00  9.000E+00
      23     2     1     2     0     0 -5.297507373E+01 -4.183485152E+01 -1.881775764E+02  2.189750255E+02  8.934622702E+01  0.00000E+00  9.000E+00
      11     1     3     3     0     0 -5.513382386E+01 -6.652153615E+01 -1.563923503E+02  1.786712638E+02  5.109961261E-04  0.00000E+00  9.000E+00
     -11     1     3     3     0     0  2.158750131E+00  2.468668463E+01 -3.178522619E+01  4.030376167E+01  5.109994627E-04  0.00000E+00  9.000E+00
       3     1     1     2   511     0  5.297507373E+01  4.183485152E+01 -5.652843747E+01  8.804531493E+01  7.988467904E-07  0.00000E+00  9.000E+00
</event>
<event>
      6  10011  1.00000E+00  3.42545E+01 -1.00000E+00  1.49111E-01
      21    -1     0     0   501   511  0.000000000E+00  0.000000000E+00  8.098439270E+00  8.098439270E+00  0.000000000E+00  0.00000E+00  9.000E+00
      -2    -1     0     0     0   501  0.000000000E+00  0.000000000E+00 -1.730550250E+02  1.730550250E+02  0.000000000E+00  0.00000E+00  9.000E+00
      23     2     1     2     0     0  2.575252627E+01  2.258717432E+01 -7.753473218E+01  8.726015497E+01  2.072020507E+01  0.00000E+00  9.000E+00
      11     1     3     3     0     0  2.079751460E+01  5.873736161E+00 -5.230483977E+01  5.659358315E+01  5.109995598E-04  0.00000E+00  9.000E+00
     -11     1     3     3     0     0  4.955011661E+00  1.671343816E+01 -2.522989240E+01  3.066657181E+01  5.109994381E-04  0.00000E+00  9.000E+00
      -2     1     1     2     0   511 -2.575252627E+01 -2.258717432E+01 -8.742185352E+01  9.389330928E+01  1.240292313E-06  0.00000E+00  9.000E+00
</event>
<event>
      6  10011  1.00000E+00  1.44883E+00 -1.00000E+00  4.56481E-01
      21    -1     0     0   511   501  0.000000000E+00  0.000000000E+00  4.878433118E+00  4.878433118E+00  0.000000000E+00  0.00000E+00  9.000E+00
       1    -1     0     0   501     0  0.000000000E+00  0.000000000E+00 -5.799167603E+02  5.799167603E+02  0.000000000E+00  0.00000E+00  9.000E+00
      23     2     1     2     0     0 -1.438339862E+00  1.740040165E-01 -5.762015493E+02  5.829371879E+02  8.834840428E+01  0.00000E+00  9.000E+00
      11     1     3     3     0     0  8.536930034E+00 -3.896072254E+01 -4.084454214E+02  4.103882056E+02  5.110654068E-04  0.00000E+00  9.000E+00
     -11     1     3     3     0     0 -9.975269896E+00  3.913472655E+01 -1.677561279E+02  1.725489823E+02  5.110026093E-04  0.00000E+00  9.000E+00
       1     1     1     2   511     0  1.438339862E+00 -1.740040165E-01  1.163222084E+00  1.858005536E+00  1.556026545E-07  0.00000E+00  9.000E+00
</event>
<event>
      6  10011  1.00000E+00  6.35018E+00 -1.00000E+00  2.21637E-01
      21    -1     0     0   501   511  0.000000000E+00  0.000000000E+00  1.321979104E+01  1.321979104E+01  0.000000000E+00  0.00000E+00  9.000E+00
      -2    -1     0     0     0   501  0.000000000E+00  0.000000000E+00 -3.239031710E+02  3.239031710E+02  0.000000000E+00  0.00000E+00  9.000E+00
      23     2     1     2     0     0  4.644501658E+00 -4.330519365E+00 -3.166673228E+02  3.283975757E+02  8.675511257E+01  0.00000E+00  9.000E+00
      11     1     3     3     0     0 -3.854559806E+01  1.242068680E+00 -2.038721957E+02  2.074877781E+02  5.110025154E-04  0.00000E+00  9.000E+00
     -11     1     3     3     0     0  4.319009972E+01 -5.572588046E+00 -1.127951271E+02  1.209097976E+02  5.110019262E-04  0.00000E+00  9.000E+00
      -2     1     1     2     0   511 -4.644501658E+00  4.330519365E+00  5.983942922E+00  8.725386325E+00  2.719142953E-07  0.00000E+00  9.000E+00
</event>
<event>
      6  10011  1.00000E+00  3.35528E+01 -1.00000E+00  1.49705E-01
       1    -1     0     0   501     0  0.000000000E+00  0.000000000E+00  7.339467845E+02  7.339467845E+02  0.000000000E+00  0.00000E+00  9.000E+00
      -1    -1     0     0     0   511  0.000000000E+00  0.000000000E+00 -5.727045583E+00  5.727045583E+00  0.000000000E+00  0.00000E+00  9.000E+00
      23     2     1     2     0     0  2.711007345E+01  1.976948626E+01  5.404993909E+02  5.489784768E+02  9.006657458E+01  0.00000E+00  9.000E+00
      11     1     3     3     0     0  1.361102572E+00  1.998951710E+01  2.167983955E+01  2.952031229E+01  5.109991073E-04  0.00000E+00  9.000E+00
     -11     1     3     3     0     0  2.574897088E+01 -2.200308420E-01  5.188195513E+02  5.194581646E+02  5.110784895E-04  0.00000E+00  9.000E+00
      21     1     1     2   501   511 -2.711007345E+01 -1.976948626E+01  1.877203481E+02  1.906953532E+02  1.646426596E-06  0.00000E+00  9.000E+00
</event>
<event>
      6  10011  1.00000E+00  3.03222E+00 -1.00000E+00  2.95330E-01
      21    -1     0     0   511   501  0.000000000E+00  0.000000000E+00  1.393899842E+01  1.393899842E+01  0.000000000E+00  0.00000E+00  9.000E+00
       2    -1     0     0   501     0  0.000000000E+00  0.000000000E+00 -4.662517106E+01  4.662517106E+01  0.000000000E+00  0.00000E+00  9.000E+00
      23     2     1     2     0     0  2.567805425E+00 -1.612671161E+00 -4.386825154E+01  4.897826332E+01  2.156971145E+01  0.00000E+00  9.000E+00
      11     1     3     3     0     0 -8.372437864E+00 -2.595766334E+00 -9.633974602E+00  1.302494474E+01  5.109989182E-04  0.00000E+00  9.000E+00
     -11     1     3     3     0     0  1.094024329E+01  9.830951732E-01 -3.423427694E+01  3.595331858E+01  5.109991864E-04  0.00000E+00  9.000E+00
       2     1     1     2   511     0 -2.567805425E+00  1.612671161E+00  1.118207889E+01  1.158590615E+01  2.927021063E-07  0.00000E+00  9.000E+00
</event>
<event>
      6  10011  1.00000E+00  3.15278E+00 -1.00000E+00  2.90339E-01
       1    -1     0     0   501     0  0.000000000E+00  0.000000000E+00  2.089083040E+01  2.089083040E+01  0.000000000E+00  0.00000E+00  9.000E+00
      21    -1     0     0   511   501  0.000000000E+00  0.000000000E+00 -1.242833963E+01  1.242833963E+01  0.000000000E+00  0.00000E+00  9.000E+00
      23     2     1     2     0     0 -4.958589763E-01 -3.113545361E+00  1.125068947E+01  2.911035870E+01  2.666261295E+01  0.00000E+00  9.000E+00
      11     1     3     3     0     0 -4.118536084E+00 -6.702128861E+00  1.858291225E+01  2.017933345E+01  5.109989714E-04  0.00000E+00  9.000E+00
     -11     1     3     3     0     0  3.622677107E+00  3.588583500E+00 -7.332222772E+00  8.931025249E+00  5.109988722E-04  0.00000E+00  9.000E+00
       1     1     1     2   511     0  4.958589763E-01  3.113545361E+00 -2.788198696E+00  4.208811330E+00  3.296671439E-08  0.00000E+00  9.000E+00
</event>
<event>
      6  10011  1.00000E+00  5.78456E+00 -1.00000E+00  2.27886E-01
       3    -1     0     0   511     0  0.000000000E+00  0.000000000E+00  2.396460972E+01  2.396460972E+01  0.000000000E+00  0.00000E+00  9.000E+00
      -3    -1     0     0     0   501  0.000000000E+00  0.000000000E+00 -2.215830223E+02  2.215830223E+02  0.000000000E+00  0.00000E+00  9.000E+00
      23     2     1     2     0     0 -4.099961777E+00  4.080619894E+00 -2.108882594E+02  2.310717907E+02  9.427010866E+01  0.00000E+00  9.000E+00
      11     1     3     3     0     0 -1.593437796E+01  3.891082906E+01 -4.681512810E+01  6.292545779E+01  5.109989718E-04  0.00000E+00  9.000E+00
     -11     1     3     3     0     0  1.183441619E+01 -3.483020916E+01 -1.640731313E+02  1.681463329E+02  5.109985977E-04  0.00000E+00  9.000E+00
      21     1     1     2   511   501  4.099961777E+00 -4.080619894E+00  1.326984682E+01  1.447584125E+01  5.253980180E-07  0.00000E+00  9.000E+00
</event>
<event>
      6  10011  1.00000E+00  1.34151E+01 -1.00000E+00  1.82028E-01
       2    -1     0     0   501     0  0.000000000E+00  0.000000000E+00  6.482331925E+01  6.482331925E+01  0.000000000E+00  0.00000E+00  9.000E+00
      21    -1     0     0   511   501  0.000000000E+00  0.000000000E+00 -6.293481449E+00  6.293481449E+00  0.000000000E+00  0.00000E+00  9.000E+00
      23     2     1     2     0     0 -8.424462395E+00 -1.043996949E+01  5.203387854E+01  5.621170035E+01  1.650049124E+01  0.00000E+00  9.000E+00
      11     1     3     3     0     0  4.113102142E+00  1.022743861E+00  9.075974198E+00  1.001683194E+01  5.109989459E-04  0.00000E+00  9.000E+00
     -11     1     3     3     0     0 -1.253756454E+01 -1.146271335E+01  4.295790434E+01  4.619486841E+01  5.109989503E-04  0.00000E+00  9.000E+00
       2     1     1     2   511     0  8.424462395E+00  1.043996949E+01  6.495959264E+00  1.490510035E+01  2.876023032E-07  0.00000E+00  9.000E+00
</event>
<event>
      6  10011  1.00000E+00  1.16864E+01 -1.00000E+00  1.88192E-01
      -3    -1     0     0     0   501  0.000000000E+00  0.000000000E+00  3.546797883E+01  3.546797883E+01  0.000000000E+00  0.00000E+00  9.000E+00
       3    -1     0     0   511     0  0.000000000E+00  0.000000000E+00 -1.026918090E+02  1.026918090E+02  0.000000000E+00  0.00000E+00  9.000E+00
      23     2     1     2     0     0 -1.024082219E+01 -5.630081329E+00 -4.873149538E+01  1.162842604E+02  1.049318747E+02  0.00000E+00  9.000E+00
      11     1     3     3     0     0  1.237089720E+01  2.308889314E+01 -6.948001095E+01  7.425367335E+01  5.109996914E-04  0.00000E+00  9.000E+00
     -11     1     3     3     0     0 -2.261171939E+01 -2.871897447E+01  2.074851557E+01  4.203058704E+01  5.109996182E-04  0.00000E+00  9.000E+00
      21     1     1     2   511   501  1.024082219E+01  5.630081329E+00 -1.849233482E+01  2.187552746E+01  3.602184282E-07  0.00000E+00  9.000E+00
</event>
<event>
      6  10011  1.00000E+00  3.20422E+00 -1.00000E+00  2.88320E-01
       2    -1     0     0   501     0  0.000000000E+00  0.000000000E+00  7.661887675E+00  7.661887675E+00  0.000000000E+00  0.00000E+00  9.000E+00
      21    -1     0     0   511   501  0.000000000E+00  0.000000000E+00 -1.368495096E+01  1.368495096E+01  0.000000000E+00  0.00000E+00  9.000E+00
      23     2     1     2     0     0  1.151445070E+00  2.990183600E+00 -6.681626749E+00  1.807564167E+01  1.648689365E+01  0.00000E+00  9.000E+00
      11     1     3     3     0     0  5.545997292E+00  6.498148196E+00 -8.611976728E+00  1.213054654E+01  5.109989057E-04  0.00000E+00  9.000E+00
     -11     1     3     3     0     0 -4.394552221E+00 -3.507964597E+00  1.930349980E+00  5.945095133E+00  5.109989188E-04  0.00000E+00  9.000E+00
       2     1     1     2   511     0 -1.151445070E+00 -2.990183600E+00  6.585634649E-01  3.271196959E+00  2.375043758E-08  0.00000E+00  9.000E+00
</event>
<event>
      6  10011  1.00000E+00  2.25685E+00 -1.00000E+00  3.40050E-01
      -4    -1     0     0     0   501  0.000000000E+00  0.000000000E+00  2.073934093E+00  2.073934093E+00  0.000000000E+00  0.00000E+00  9.000E+00
      21    -1     0     0   501   511  0.000000000E+00  0.000000000E+00 -8.501664025E+01  8.501664025E+01  0.000000000E+00  0.00000E+00  9.000E+00
      23     2     1     2     0     0 -2.437898954E-01  2.243642154E+00 -6.035762553E+01  6.439301433E+01  2.232317117E+01  0.00000E+00  9.000E+00
      11     1     3     3     0     0  4.899250409E+00  1.092737307E-02 -1.298598483E+00  5.068444757E+00  5.109988615E-04  0.00000E+00  9.000E+00
     -11     1     3     3     0     0 -5.143040304E+00  2.232714781E+00 -5.905902705E+01  5.932456958E+01  5.109995167E-04  0.00000E+00  9.000E+00
      -4     1     1     2     0   511  2.437898954E-01 -2.243642154E+00 -2.258508062E+01  2.269756001E+01  2.859023788E-07  0.00000E+00  9.000E+00
</event>
<event>
      6  10011  1.00000E+00  5.37658E+00 -1.00000E+00  2.33051E-01
       2    -1     0     0   501     0  0.000000000E+00  0.000000000E+00  4.965370314E+01  4.965370314E+01  0.000000000E+00  0.00000E+00  9.000E+00
      21    -1     0     0   511   501  0.000000000E+00  0.000000000E+00 -4.022173636E+00  4.022173636E+00  0.000000000E+00  0.00000E+00  9.000E+00
      23     2     1     2     0     0 -5.040136294E+00 -1.872054559E+00  4.264010048E+01  4.752313676E+01  2.028208066E+01  0.00000E+00  9.000E+00
      11     1     3     3     0     0  4.540243201E-01  3.925387892E+00  3.816231213E+01  3.836635083E+01  5.109991544E-04  0.00000E+00  9.000E+00
     -11     1     3     3     0     0 -5.494160614E+00 -5.797442451E+00  4.477788350E+00  9.156785931E+00  5.109987807E-04  0.00000E+00  9.000E+00
       2     1     1     2   511     0  5.040136294E+00  1.872054559E+00  2.991429019E+00  6.152740016E+00  3.184251673E-08  0.00000E+00  9.000E+00
</event>
<event>
      6  10011  1.00000E+00  3.30458E+00 -1.00000E+00  2.84553E-01
      -1    -1     0     0     0   501  0.000000000E+00  0.000000000E+00  1.338501279E+02  1.338501279E+02  0.000000000E+00  0.00000E+00  9.000E+00
      21    -1     0     0   501   511  0.000000000E+00  0.000000000E+00 -1.843946303E+02  1.843946303E+02  0.000000000E+00  0.00000E+00  9.000E+00
      23     2     1     2     0     0  3.179413382E+00 -9.008634118E-01  1.171816912E+02  1.504860140E+02  9.435873801E+01  0.00000E+00  9.000E+00
      11     1     3     3     0     0 -4.296147481E+01 -1.180198665E+01  3.983334612E+01  5.976345597E+01  5.109983414E-04  0.00000E+00  9.000E+00
     -11     1     3     3     0     0  4.614088819E+01  1.090112324E+01  7.734834512E+01  9.072255807E+01  5.109991800E-04  0.00000E+00  9.000E+00
      -1     1     1     2     0   511 -3.179413382E+00  9.008634118E-01 -1.677261936E+02  1.677587441E+02  3.074120750E-06  0.00000E+00  9.000E+00
</event>
<event>
      6  10011  1.00000E+00  6.09916E+00 -1.00000E+00  2.24294E-01
      21    -1     0     0   511   501  0.000000000E+00  0.000000000E+00  7.976003371E-01  7.976003371E-01  0.000000000E+00  0.00000E+00  9.000E+00
       2    -1     0     0   501     0  0.000000000E+00  0.000000000E+00 -3.112245517E+02  3.112245517E+02  0.000000000E+00  0.00000E+00  9.000E+00
      23     2     1     2     0     0  1.531747773E+00 -5.903684067E+00 -2.852881247E+02  2.861540183E+02  2.139178254E+01  0.00000E+00  9.000E+00
      11     1     3     3     0     0 -5.868698939E+00 -6.846164711E+00 -5.416024127E+01  5.490576775E+01  5.110006322E-04  0.00000E+00  9.000E+00
     -11     1     3     3     0     0  7.400446712E+00  9.424806443E-01 -2.311278834E+02  2.312482505E+02  5.109955664E-04  0.00000E+00  9.000E+00
       2     1     1     2   511     0 -1.531747773E+00  5.903684067E+00 -2.513882665E+01  2.586813372E+01  7.300048300E-08  0.00000E+00  9.000E+00
</event>
<event>
      6  10011  1.00000E+00  8.50270E+00 -1.00000E+00  2.04205E-01
      -1    -1     0     0     0   501  0.000000000E+00  0.000000000E+00  2.242799631E+01  2.242799631E+01  0.000000000E+00  0.00000E+00  9.000E+00
       1    -1     0     0   511     0  0.000000000E+00  0.000000000E+00 -1.117370842E+02  1.117370842E+02  0.000000000E+00  0.00000E+00  9.000E+00
      23     2     1     2     0     0 -5.529296363E+00 -6.459316099E+00 -7.236430144E+01  1.152066610E+02  8.923949086E+01  0.00000E+00  9.000E+00
      11     1     3     3     0     0 -2.438478674E+01 -2.429545315E+01 -8.087202422E+01  8.789295290E+01  5.109968800E-04  0.00000E+00  9.000E+00
     -11     1     3     3     0     0  1.885549038E+01  1.783613705E+01  8.507722774E+00  2.731370809E+01  5.109994741E-04  0.00000E+00  9.000E+00
      21     1     1     2   511   501  5.529296363E+00  6.459316099E+00 -1.694478641E+01  1.895841948E+01  1.855927513E-07  0.00000E+00  9.000E+00
</event>
<event>
      6  10011  1.00000E+00  4.92469E+00 -1.00000E+00  2.43766E-01
       2    -1     0     0   501     0  0.000000000E+00  0.000000000E+00  5.106764972E+02  5.106764972E+02  0.000000000E+00  0.00000E+00  9.000E+00
      21    -1     0     0   511   501  0.000000000E+00  0.000000000E+00 -8.023046810E-01  8.023046810E-01  0.000000000E+00  0.00000E+00  9.000E+00
      23     2     1     2     0     0  9.694322686E-01  4.828326110E+00  4.863733648E+02  4.874675246E+02  3.226894864E+01  0.00000E+00  9.000E+00
      11     1     3     3     0     0  1.272569977E+01  1.299900479E+01  2.938919677E+02  2.944544213E+02  5.109986533E-04  0.00000E+00  9.000E+00
     -11     1     3     3     0     0 -1.175626750E+01 -8.170678676E+00  1.924813971E+02  1.930131033E+02  5.109853113E-04  0.00000E+00  9.000E+00
       2     1     1     2   511     0 -9.694322686E-01 -4.828326110E+00  2.350082775E+01  2.401127729E+01  2.207686363E-07  0.00000E+00  9.000E+00
</event>
<event>
      6  10011  1.00000E+00  1.02173E+00 -1.00000E+00  6.35362E-01
      21    -1     0     0   501   511  0.000000000E+00  0.000000000E+00  4.070416133E+02  4.070416133E+02  0.000000000E+00  0.00000E+00  9.000E+00
      -2    -1     0     0     0   501  0.000000000E+00  0.000000000E+00 -2.091379287E-01  2.091379287E-01  0.000000000E+00  0.00000E+00  9.000E+00
      23     2     1     2     0     0  8.230718429E-01 -6.053826738E-01  3.587445032E+02  3.591519258E+02  1.707171136E+01  0.00000E+00  9.000E+00
      11     1     3     3     0     0  3.044987138E+00 -5.970314086E+00  3.085302220E+02  3.086030047E+02  5.110232506E-04  0.00000E+00  9.000E+00
     -11     1     3     3     0     0 -2.221915295E+00  5.364931412E+00  5.021428113E+01  5.054892111E+01  5.109928949E-04  0.00000E+00  9.000E+00
      -2     1     1     2     0   511 -8.230718429E-01  6.053826738E-01  4.808797223E+01  4.809882544E+01  5.072964588E-07  0.00000E+00  9.000E+00
</event>
<event>
      6  10011  1.00000E+00  1.33600E+01 -1.00000E+00  1.82205E-01
      -3    -1     0     0     0   501  0.000000000E+00  0.000000000E+00  8.726357309E+01  8.726357309E+01  0.000000000E+00  0.00000E+00  9.000E+00
      21    -1     0     0   501   511  0.000000000E+00  0.000000000E+00 -3.451222600E+01  3.451222600E+01  0.000000000E+00  0.00000E+00  9.000E+00
      23     2     1     2     0     0  1.327144195E+01 -1.535914295E+00  3.014268517E+01  9.551476716E+01  8.964373415E+01  0.00000E+00  9.000E+00
      11     1     3     3     0     0 -2.656603133E+01 -1.848613597E+01 -1.254886214E+01  3.471260844E+01  5.109988914E-04  0.00000E+00  9.000E+00
     -11     1     3     3     0     0  3.983747329E+01  1.695022167E+01  4.269154731E+01  6.080215872E+01  5.109980423E-04  0.00000E+00  9.000E+00
      -3     1     1     2     0   511 -1.327144195E+01  1.535914295E+00  2.260866192E+01  2.626103193E+01  3.534120687E-08  0.00000E+00  9.000E+00
</event>
<event>
      6  10011  1.00000E+00  1.37932E+00 -1.00000E+00  4.74928E-01
      -2    -1     0     0     0   501  0.000000000E+00  0.000000000E+00  7.062530972E+02  7.062530972E+02  0.000000000E+00  0.00000E+00  9.000E+00
       2    -1     0     0   511     0  0.000000000E+00  0.000000000E+00 -2.004801629E-01  2.004801629E-01  0.000000000E+00  0.00000E+00  9.000E+00
      23     2     1     2     0     0  4.905048438E-01 -1.289160499E+00  6.792894032E+02  6.796548433E+02  2.224208308E+01  0.00000E+00  9.000E+00
      11     1     3     3     0     0  2.825617540E+00 -2.199807670E+00  1.759551833E+01  1.795621157E+01  5.109979424E-04  0.00000E+00  9.000E+00
     -11     1     3     3     0     0 -2.335112696E+00  9.106471708E-01  6.616938849E+02  6.616986318E+02  5.111868921E-04  0.00000E+00  9.000E+00
      21     1     1     2   511   501 -4.905048438E-01  1.289160499E+00  2.676321389E+01  2.679873407E+01  2.525516042E-07  0.00000E+00  9.000E+00
</event>
<event>
      6  10011  1.00000E+00  1.49696E+01 -1.00000E+00  1.77419E-01
      21    -1     0     0   501   511  0.000000000E+00  0.000000000E+00  8.408174365E+00  8.408174365E+00  0.000000000E+00  0.00000E+00  9.000E+00
      -3    -1     0     0     0   501  0.000000000E+00  0.000000000E+00 -4.715387362E+02  4.715387362E+02  0.000000000E+00  0.00000E+00  9.000E+00
      23     2     1     2     0     0 -9.264434034E+00 -1.175837058E+01 -4.521622101E+02  4.613890617E+02  9.058207848E+01  0.00000E+00  9.000E+00
      11     1     3     3     0     0 -1.065414724E+01 -4.205854100E+01 -3.880024579E+02  3.904207206E+02  5.110408949E-04  0.00000E+00  9.000E+00
     -11     1     3     3     0     0  1.389713205E+00  3.030017042E+01 -6.415975224E+01  7.096834110E+01  5.109993056E-04  0.00000E+00  9.000E+00
      -3     1     1     2     0   511  9.264434034E+00  1.175837058E+01 -1.096835172E+01  1.855784891E+01  5.189531291E-07  0.00000E+00  9.000E+00
</event>
<event>
      6  10011  1.00000E+00  1.90895E+01 -1.00000E+00  1.68014E-01
       2    -1     0     0   501     0  0.000000000E+00  0.000000000E+00  4.960710795E+02  4.960710795E+02  0.000000000E+00  0.00000E+00  9.000E+00
      21    -1     0     0   511   501  0.000000000E+00  0.000000000E+00 -2.548496372E+00  2.548496372E+00  0.000000000E+00  0.00000E+00  9.000E+00
      23     2     1     2     0     0  1.788323559E+01 -6.678309743E+00  4.159841505E+02  4.187658442E+02  4.424487335E+01  0.00000E+00  9.000E+00
      11     1     3     3     0     0  7.152474121E+00  6.642606806E-01  8.735350717E+00  1.130953053E+01  5.109988385E-04  0.00000E+00  9.000E+00
     -11     1     3     3     0     0  1.073076147E+01 -7.342570423E+00  4.072487998E+02  4.074563137E+02  5.110233341E-04  0.00000E+00  9.000E+00
       2     1     1     2   511     0 -1.788323559E+01  6.678309743E+00  7.753843260E+01  7.985373170E+01  1.032382731E-07  0.00000E+00  9.000E+00
</event>
<event>
      6  10011  1.00000E+00  4.85303E+00 -1.00000E+00  2.45046E-01
      -1    -1     0     0     0   501  0.000000000E+00  0.000000000E+00  1.478458728E+00  1.478458728E+00  0.000000000E+00  0.00000E+00  9.000E+00
       1    -1     0     0   511     0  0.000000000E+00  0.000000000E+00 -1.938419216E+02  1.938419216E+02  0.000000000E+00  0.00000E+00  9.000E+00
      23     2     1     2     0     0  1.310098809E+00 -4.672848650E+00 -5.439971333E+01  5.727130188E+01  1.723720786E+01  0.00000E+00  9.000E+00
      11     1     3     3     0     0  2.871472398E-01  5.919691232E+00 -1.009240253E+01  1.170392186E+01  5.109989418E-04  0.00000E+00  9.000E+00
     -11     1     3     3     0     0  1.022951569E+00 -1.059253988E+01 -4.430731080E+01  4.556738002E+01  5.109990548E-04  0.00000E+00  9.000E+00
      21     1     1     2   511   501 -1.310098809E+00  4.672848650E+00 -1.379637496E+02  1.380490785E+02  1.439177569E-06  0.00000E+00  9.000E+00
</event>
<event>
      6  10011  1.00000E+00  1.36331E+01 -1.00000E+00  1.81334E-01
       1    -1     0     0   501     0  0.000000000E+00  0.000000000E+00  1.897968544E+03  1.897968544E+03  0.000000000E+00  0.00000E+00  9.000E+00
      -1    -1     0     0     0   511  0.000000000E+00  0.000000000E+00 -1.655992976E+00  1.655992976E+00  0.000000000E+00  0.00000E+00  9.000E+00
      23     2     1     2     0     0 -1.340398315E+01 -2.488764691E+00  1.867404302E+03  1.867662879E+03  2.792744055E+01  0.00000E+00  9.000E+00
      11     1     3     3     0     0 -1.079639696E+01 -2.208201628E+00  2.366230527E+02  2.368795209E+02  5.110776866E-04  0.00000E+00  9.000E+00
     -11     1     3     3     0     0 -2.607586194E+00 -2.805630629E-01  1.630781249E+03  1.630783358E+03  5.095780924E-04  0.00000E+00  9.000E+00
      21     1     1     2   501   511  1.340398315E+01  2.488764691E+00  2.890824873E+01  3.196165763E+01  1.384665899E-06  0.00000E+00  9.000E+00
</event>
<event>
      6  10011  1.00000E+00  1.92665E+00 -1.00000E+00  3.70592E-01
      -2    -1     0     0     0   501  0.000000000E+00  0.000000000E+00  7.851067105E+00  7.851067105E+00  0.000000000E+00  0.00000E+00  9.000E+00
       2    -1     0     0   511     0  0.000000000E+00  0.000000000E+00 -1.787127024E+01  1.787127024E+01  0.000000000E+00  0.00000E+00  9.000E+00
      23     2     1     2     0     0 -1.657233335E-01  1.919506425E+00 -4.969745219E+00  2.031686842E+01  1.960522394E+01  0.00000E+00  9.000E+00
      11     1     3     3     0     0  7.347049984E+00 -4.266510563E+00 -6.185808204E+00  1.050935199E+01  5.109989346E-04  0.00000E+00  9.000E+00
     -11     1     3     3     0     0 -7.512773317E+00  6.186016988E+00  1.216062985E+00  9.807516430E+00  5.109989127E-04  0.00000E+00  9.000E+00
      21     1     1     2   511   501  1.657233335E-01 -1.919506425E+00 -5.050457919E+00  5.405468928E+00  5.831001640E-08  0.00000E+00  9.000E+00
</event>
<event>
      6  10011  1.00000E+00  8.22849E+00 -1.00000E+00  2.06019E-01
      -3    -1     0     0     0   511  0.000000000E+00  0.000000000E+00  5.305765014E+02  5.305765014E+02  0.000000000E+00  0.00000E+00  9.000E+00
       3    -1     0     0   501     0  0.000000000E+00  0.000000000E+00 -4.786163594E+00  4.786163594E+00  0.000000000E+00  0.00000E+00  9.000E+00
      23     2     1     2     0     0 -8.178943270E+00  9.016005891E-01  4.436728903E+02  4.528339841E+02  9.025118010E+01  0.00000E+00  9.000E+00
      11     1     3     3     0     0  3.172631403E+01 -2.716074195E+01  1.953850571E+02  1.997988625E+02  5.110060299E-04  0.00000E+00  9.000E+00
     -11     1     3     3     0     0 -3.990525730E+01  2.806234254E+01  2.482878332E+02  2.530351216E+02  5.109998874E-04  0.00000E+00  9.000E+00
      21     1     1     2   501   511  8.178943270E+00 -9.016005891E-01  8.211744744E+01  8.252868090E+01  9.987113524E-07  0.00000E+00  9.000E+00
</event>
<event>
      6  10011  1.00000E+00  3.51073E+00 -1.00000E+00  2.77457E-01
      -1    -1     0     0     0   511  0.000000000E+00  0.000000000E+00  2.230038588E+02  2.230038588E+02  0.000000000E+00  0.00000E+00  9.000E+00
       1    -1     0     0   501     0  0.000000000E+00  0.000000000E+00 -6.467266890E-01  6.467266890E-01  0.000000000E+00  0.00000E+00  9.000E+00
      23     2     1     2     0     0  3.446349658E+00  6.692329083E-01  1.807549817E+02  1.819005661E+02  2.007803143E+01  0.00000E+00  9.000E+00
      11     1     3     3     0     0  3.708895886E+00  4.754401375E+00  1.732239537E+02  1.733288735E+02  5.110153790E-04  0.00000E+00  9.000E+00
     -11     1     3     3     0     0 -2.625462278E-01 -4.085168467E+00  7.531027997E+00  8.571692649E+00  5.109991579E-04  0.00000E+00  9.000E+00
      21     1     1     2   501   511 -3.446349658E+00 -6.692329083E-01  4.160215046E+01  4.175001942E+01  3.584031305E-07  0.00000E+00  9.000E+00
</event>
<event>
      6  10011  1.00000E+00  1.20804E+01 -1.00000E+00  1.86671E-01
      21    -1     0     0   501   511  0.000000000E+00  0.000000000E+00  5.469670452E+02  5.469670452E+02  0.000000000E+00  0.00000E+00  9.000E+00
      -3    -1     0     0     0   501  0.000000000E+00  0.000000000E+00 -5.672384146E+00  5.672384146E+00  0.000000000E+00  0.00000E+00  9.000E+00
      23     2     1     2     0     0  7.944148104E+00 -9.100922669E+00  3.732994155E+02  3.842103974E+02  9.010682302E+01  0.00000E+00  9.000E+00
      11     1     3     3     0     0  4.418402405E+01  7.621910843E+00  1.266434155E+02  1.343461060E+02  5.110030838E-04  0.00000E+00  9.000E+00
     -11     1     3     3     0     0 -3.623987595E+01 -1.672283351E+01  2.466560000E+02  2.498642914E+02  5.109929036E-04  0.00000E+00  9.000E+00
      -3     1     1     2     0   511 -7.944148104E+00  9.100922669E+00  1.679952455E+02  1.684290320E+02  1.143415337E-06  0.00000E+00  9.000E+00
</event>
<event>
      6  10011  1.00000E+00  1.88672E+01 -1.00000E+00  1.68443E-01
       3    -1     0     0   511     0  0.000000000E+00  0.000000000E+00  3.291609495E+01  3.291609495E+01  0.000000000E+00  0.00000E+00  9.000E+00
      -3    -1     0     0     0   501  0.000000000E+00  0.000000000E+00 -1.408079282E+02  1.408079282E+02  0.000000000E+00  0.00000E+00  9.000E+00
      23     2     1     2     0     0 -5.841567846E+00  1.794008056E+01 -1.247224012E+02  1.484408583E+02  7.824986031E+01  0.00000E+00  9.000E+00
      11     1     3     3     0     0  1.377382089E+01  3.456836464E+01 -1.151311866E+02  1.209953722E+02  5.109984665E-04  0.00000E+00  9.000E+00
     -11     1     3     3     0     0 -1.961538873E+01 -1.662828409E+01 -9.591214639E+00  2.744548606E+01  5.109986509E-04  0.00000E+00  9.000E+00
      21     1     1     2   511   501  5.841567846E+00 -1.794008056E+01  1.683056800E+01  2.528316484E+01  2.652029951E-07  0.00000E+00  9.000E+00
</event>
<event>
      6  10011  1.00000E+00  2.43822E+00 -1.00000E+00  3.26997E-01
      21    -1     0     0   511   501  0.000000000E+00  0.000000000E+00  8.532813635E-01  8.532813635E-01  0.000000000E+00  0.00000E+00  9.000E+00
       2    -1     0     0   501     0  0.000000000E+00  0.000000000E+00 -8.410273371E+02  8.410273371E+02  0.000000000E+00  0.00000E+00  9.000E+00
      23     2     1     2     0     0 -2.287577545E+00  8.437542198E-01 -8.376260766E+02  8.383539869E+02  3.484276503E+01  0.00000E+00  9.000E+00
      11     1     3     3     0     0 -3.930551402E+00  8.599251191E+00 -6.469495198E+01  6.538220834E+01  5.109925547E-04  0.00000E+00  9.000E+00
     -11     1     3     3     0     0  1.642973857E+00 -7.755496971E+00 -7.729311246E+02  7.729717786E+02  5.107002765E-04  0.00000E+00  9.000E+00
       2     1     1     2   511     0  2.287577545E+00 -8.437542198E-01 -2.547979106E+00  3.526631500E+00  2.808041813E-07  0.00000E+00  9.000E+00
</event>
<event>
      6  10011  1.00000E+00  9.91090E+00 -1.00000E+00  1.96149E-01
      21    -1     0     0   511   501  0.000000000E+00  0.000000000E+00  3.825710888E+00  3.825710888E+00  0.000000000E+00  0.00000E+00  9.000E+00
       3    -1     0     0   501     0  0.000000000E+00  0.000000000E+00 -6.435416783E+02  6.435416783E+02  0.000000000E+00  0.00000E+00  9.000E+00
      23     2     1     2     0     0  6.777460411E+00 -7.231320427E+00 -5.828183957E+02  5.896130852E+02  8.870220902E+01  0.00000E+00  9.000E+00
      11     1     3     3     0     0 -7.126290501E-01  3.845308007E+01 -1.750472878E+02  1.792224879E+02  5.110144544E-04  0.00000E+00  9.000E+00
     -11     1     3     3     0     0  7.490089461E+00 -4.568440050E+01 -4.077711079E+02  4.103905973E+02  5.110449826E-04  0.00000E+00  9.000E+00
       3     1     1     2   511     0 -6.777460411E+00  7.231320427E+00 -5.689757179E+01  5.775430408E+01  6.014238617E-07  0.00000E+00  9.000E+00
</event>
<event>
      6  10011  1.00000E+00  1.26940E+01 -1.00000E+00  1.84445E-01
      -3    -1     0     0     0   511  0.000000000E+00  0.000000000E+00  5.206795802E+02  5.206795802E+02  0.000000000E+00  0.00000E+00  9.000E+00
       3    -1     0     0   501     0  0.000000000E+00  0.000000000E+00 -6.290295174E+00  6.290295174E+00  0.000000000E+00  0.00000E+00  9.000E+00
      23     2     1     2     0     0 -1.224638439E+01 -3.341168418E+00  4.390978898E+02  4.506158871E+02  1.004319845E+02  0.00000E+00  9.000E+00
      11     1     3     3     0     0 -2.088541727E+01  4.274139600E+00  4.385696293E+02  4.390874499E+02  5.110232228E-04  0.00000E+00  9.000E+00
     -11     1     3     3     0     0  8.639032887E+00 -7.615308018E+00  5.282605816E-01  1.152843723E+01  5.109987708E-04  0.00000E+00  9.000E+00
      21     1     1     2   501   511  1.224638439E+01  3.341168418E+00  7.529139521E+01  7.635398831E+01  1.136011991E-06  0.00000E+00  9.000E+00
</event>
<event>
      6  10011  1.00000E+00  4.26541E+00 -1.00000E+00  2.56962E-01
      -1    -1     0     0     0   501  0.000000000E+00  0.000000000E+00  1.976013393E+02  1.976013393E+02  0.000000000E+00  0.00000E+00  9.000E+00
      21    -1     0     0   501   511  0.000000000E+00  0.000000000E+00 -1.200121352E+01  1.200121352E+01  0.000000000E+00  0.00000E+00  9.000E+00
      23     2     1     2     0     0  2.472198038E+00  3.475911591E+00  1.830387432E+02  2.046271729E+02  9.138328440E+01  0.00000E+00  9.000E+00
      11     1     3     3     0     0 -3.301382191E+00 -2.320415637E+01  1.744396494E+02  1.760071682E+02  5.109807069E-04  0.00000E+00  9.000E+00
     -11     1     3     3     0     0  5.773580229E+00  2.668006796E+01  8.599093843E+00  2.862000472E+01  5.109982608E-04  0.00000E+00  9.000E+00
      -1     1     1     2     0   511 -2.472198038E+00 -3.475911591E+00  2.561382632E+00  4.975379936E+00  3.639315010E-08  0.00000E+00  9.000E+00
</event>
<event>
      6  10011  1.00000E+00  1.09774E+01 -1.00000E+00  1.91133E-01
      -2    -1     0     0     0   501  0.000000000E+00  0.000000000E+00  7.975009882E+01  7.975009882E+01  0.000000000E+00  0.00000E+00  9.000E+00
      21    -1     0     0   501   511  0.000000000E+00  0.000000000E+00 -6.215531793E+00  6.215531793E+00  0.000000000E+00  0.00000E+00  9.000E+00
      23     2     1     2     0     0  1.899222173E+00  1.081185403E+01  3.428450838E+01  4.520939997E+01  2.734884090E+01  0.00000E+00  9.000E+00
      11     1     3     3     0     0  1.126554934E+01 -3.205293312E+00  1.969447784E+01  2.291416516E+01  5.109989426E-04  0.00000E+00  9.000E+00
     -11     1     3     3     0     0 -9.366327164E+00  1.401714734E+01  1.459003053E+01  2.229523481E+01  5.109990394E-04  0.00000E+00  9.000E+00
      -2     1     1     2     0   511 -1.899222173E+00 -1.081185403E+01  3.925005865E+01  4.075623065E+01  6.774704410E-07  0.00000E+00  9.000E+00
</event>
<event>
      6  10011  1.00000E+00  1.48822E+00 -1.00000E+00  4.47049E-01
       1    -1     0     0   501     0  0.000000000E+00  0.000000000E+00  3.519430541E+02  3.519430541E+02  0.000000000E+00  0.00000E+00  9.000E+00
      -1    -1     0     0     0   511  0.000000000E+00  0.000000000E+00 -3.821630269E-01  3.821630269E-01  0.000000000E+00  0.00000E+00  9.000E+00
      23     2     1     2     0     0  1.207675671E+00 -8.696605694E-01  3.341452187E+02  3.348460743E+02  2.160211792E+01  0.00000E+00  9.000E+00
      11     1     3     3     0     0 -6.354057855E+00 -7.798405449E+00  1.077110096E+02  1.081797151E+02  5.109948155E-04  0.00000E+00  9.000E+00
     -11     1     3     3     0     0  7.561733526E+00  6.928744880E+00  2.264342092E+02  2.266663592E+02  5.109880993E-04  0.00000E+00  9.000E+00
      21     1     1     2   501   511 -1.207675671E+00  8.696605694E-01  1.741567236E+01  1.747914282E+01  1.921325469E-07  0.00000E+00  9.000E+00
</event>
<event>
      6  10011  1.00000E+00  2.41313E+00 -1.00000E+00  3.28682E-01
      21    -1     0     0   511   501  0.000000000E+00  0.000000000E+00  1.271087180E+01  1.271087180E+01  0.000000000E+00  0.00000E+00  9.000E+00
       1    -1     0     0   501     0  0.000000000E+00  0.000000000E+00 -1.861490952E+02  1.861490952E+02  0.000000000E+00  0.00000E+00  9.000E+00
      23     2     1     2     0     0  1.954003123E+00  1.416001739E+00 -1.743744071E+02  1.962716028E+02  9.005712093E+01  0.00000E+00  9.000E+00
      11     1     3     3     0     0 -3.176849547E+01 -1.893329161E+01 -1.372546527E+02  1.421497328E+02  5.109885426E-04  0.00000E+00  9.000E+00
     -11     1     3     3     0     0  3.372249859E+01  2.034929335E+01 -3.711975440E+01  5.412187005E+01  5.110002936E-04  0.00000E+00  9.000E+00
       1     1     1     2   511     0 -1.954003123E+00 -1.416001739E+00  9.361837237E-01  2.588364174E+00  6.288022497E-08  0.00000E+00  9.000E+00
</event>
<event>
      6  10011  1.00000E+00  6.68675E+00 -1.00000E+00  2.18329E-01
       2    -1     0     0   501     0  0.000000000E+00  0.000000000E+00  1.193595557E+03  1.193595557E+03  0.000000000E+00  0.00000E+00  9.000E+00
      -2    -1     0     0     0   511  0.000000000E+00  0.000000000E+00 -2.077443529E+00  2.077443529E+00  0.000000000E+00  0.00000E+00  9.000E+00
      23     2     1     2     0     0  6.628243749E+00  8.826357845E-01  1.132224990E+03  1.136004021E+03  9.234172641E+01  0.00000E+00  9.000E+00
      11     1     3     3     0     0 -3.303277151E+01 -1.976480812E+01  2.834318782E+02  2.860339861E+02  5.110349649E-04  0.00000E+00  9.000E+00
     -11     1     3     3     0     0  3.966101526E+01  2.064744391E+01  8.487931121E+02  8.499700349E+02  5.111700452E-04  0.00000E+00  9.000E+00
      21     1     1     2   501   511 -6.628243749E+00 -8.826357845E-01  5.929312319E+01  5.966897953E+01  1.169242760E-06  0.00000E+00  9.000E+00
</event>
<event>
      6  10011  1.00000E+00  1.00657E+01 -1.00000E+00  1.95371E-01
      21    -1     0     0   511   501  0.000000000E+00  0.000000000E+00  2.113230378E+00  2.113230378E+00  0.000000000E+00  0.00000E+00  9.000E+00
       2    -1     0     0   501     0  0.000000000E+00  0.000000000E+00 -1.229956091E+03  1.229956091E+03  0.000000000E+00  0.00000E+00  9.000E+00
      23     2     1     2     0     0 -1.006383875E+01 -1.945452203E-01 -1.129862105E+03  1.133572889E+03  9.109226038E+01  0.00000E+00  9.000E+00
      11     1     3     3     0     0  3.863040034E+01  1.307330100E+01 -5.577267560E+02  5.592158379E+02  5.111413541E-04  0.00000E+00  9.000E+00
     -11     1     3     3     0     0 -4.869423909E+01 -1.326784622E+01 -5.721353494E+02  5.743570515E+02  5.109509570E-04  0.00000E+00  9.000E+00
       2     1     1     2   511     0  1.006383875E+01  1.945452203E-01 -9.798075548E+01  9.849643213E+01  1.726735346E-06  0.00000E+00  9.000E+00
</event>
<event>
      6  10011  1.00000E+00  1.42868E+00 -1.00000E+00  4.61576E-01
       2    -1     0     0   501     0  0.000000000E+00  0.000000000E+00  6.213962622E-01  6.213962622E-01  0.000000000E+00  0.00000E+00  9.000E+00
      -2    -1     0     0     0   511  0.000000000E+00  0.000000000E+00 -3.139226555E+02  3.139226555E+02  0.000000000E+00  0.00000E+00  9.000E+00
      23     2     1     2     0     0  1.568746505E-01 -1.420044983E+00 -2.025603141E+02  2.037938912E+02  2.234341289E+01  0.00000E+00  9.000E+00
      11     1     3     3     0     0  8.958293703E+00 -4.801727615E+00 -5.490625560E+01  5.583909489E+01  5.109995530E-04  0.00000E+00  9.000E+00
     -11     1     3     3     0     0 -8.801419052E+00  3.381682631E+00 -1.476540586E+02  1.479547963E+02  5.109980780E-04  0.00000E+00  9.000E+00
      21     1     1     2   501   511 -1.568746505E-01  1.420044983E+00 -1.107409451E+02  1.107501606E+02  1.467594177E-06  0.00000E+00  9.000E+00
</event>
<event>
      6  10011  1.00000E+00  1.42057E+01 -1.00000E+00  1.79590E-01
       2    -1     0     0   501     0  0.000000000E+00  0.000000000E+00  2.563055171E+02  2.563055171E+02  0.000000000E+00  0.00000E+00  9.000E+00
      21    -1     0     0   511   501  0.000000000E+00  0.000000000E+00 -1.419449314E+00  1.419449314E+00  0.000000000E+00  0.00000E+00  9.000E+00
      23     2     1     2     0     0  8.567073139E+00 -1.133170389E+01  1.847617944E+02  1.861762699E+02  1.796887721E+01  0.00000E+00  9.000E+00
      11     1     3     3     0     0  1.295495868E+01 -3.727799616E+00  1.322950969E+02  1.329801493E+02  5.109929123E-04  0.00000E+00  9.000E+00
     -11     1     3     3     0     0 -4.387885539E+00 -7.603904275E+00  5.246669754E+01  5.319612063E+01  5.109988369E-04  0.00000E+00  9.000E+00
       2     1     1     2   511     0 -8.567073139E+00  1.133170389E+01  7.012427338E+01  7.154869651E+01  8.360600554E-07  0.00000E+00  9.000E+00
</event>
<event>
      6  10011  1.00000E+00  8.75943E+00 -1.00000E+00  2.02588E-01
       5    -1     0     0   501     0  0.000000000E+00  0.000000000E+00  6.813468463E+01  6.813468463E+01  0.000000000E+00  0.00000E+00  9.000E+00
      21    -1     0     0   511   501  0.000000000E+00  0.000000000E+00 -4.093265928E+01  4.093265928E+01  0.000000000E+00  0.00000E+00  9.000E+00
      23     2     1     2     0     0  3.181261673E+00  8.161324221E+00  3.423564216E+01  9.783349308E+01  9.122820581E+01  0.00000E+00  9.000E+00
      11     1     3     3     0     0  4.447954614E+01  1.872958975E+01  1.190037800E+01  4.970761063E+01  5.109997865E-04  0.00000E+00  9.000E+00
     -11     1     3     3     0     0 -4.129828447E+01 -1.056826553E+01  2.233526417E+01  4.812588246E+01  5.109983304E-04  0.00000E+00  9.000E+00
       5     1     1     2   511     0 -3.181261673E+00 -8.161324221E+00 -7.033616820E+00  1.123385083E+01  1.209142235E-07  0.00000E+00  9.000E+00
</event>
<event>
      6  10011  1.00000E+00  1.55196E+00 -1.00000E+00  4.23449E-01
       2    -1     0     0   501     0  0.000000000E+00  0.000000000E+00  1.268276012E+02  1.268276012E+02  0.000000000E+00  0.00000E+00  9.000E+00
      -2    -1     0     0     0   511  0.000000000E+00  0.000000000E+00 -9.474596266E-01  9.474596266E-01  0.000000000E+00  0.00000E+00  9.000E+00
      23     2     1     2     0     0  1.493197616E+00  4.230183981E-01  1.178358877E+02  1.195824663E+02  2.030421748E+01  0.00000E+00  9.000E+00
      11     1     3     3     0     0 -2.632612548E+00 -4.336396494E+00  1.064470298E+02  1.065678429E+02  5.110042726E-04  0.00000E+00  9.000E+00
     -11     1     3     3     0     0  4.125810164E+00  4.759414892E+00  1.138885785E+01  1.301462343E+01  5.109989562E-04  0.00000E+00  9.000E+00
      21     1     1     2   501   511 -1.493197616E+00 -4.230183981E-01  8.044253932E+00  8.192594522E+00  7.566100363E-08  0.00000E+00  9.000E+00
</event>
<event>
      6  10011  1.00000E+00  1.27269E+01 -1.00000E+00  1.84331E-01
       2    -1     0     0   501     0  0.000000000E+00  0.000000000E+00  9.699852888E+01  9.699852888E+01  0.000000000E+00  0.00000E+00  9.000E+00
      -2    -1     0     0     0   511  0.000000000E+00  0.000000000E+00 -1.365618723E+01  1.365618723E+01  0.000000000E+00  0.00000E+00  9.000E+00
      23     2     1     2     0     0 -1.025127726E+01 -7.542184438E+00  8.395370731E+01  9.791316991E+01  4.875233984E+01  0.00000E+00  9.000E+00
      11     1     3     3     0     0 -1.874733653E+01 -1.313508495E+01  1.318379552E+01  2.641600931E+01  5.109984821E-04  0.00000E+00  9.000E+00
     -11     1     3     3     0     0  8.496059265E+00  5.592900509E+00  7.076991179E+01  7.149716060E+01  5.109966653E-04  0.00000E+00  9.000E+00
      21     1     1     2   501   511  1.025127726E+01  7.542184438E+00 -6.113656536E-01  1.274154620E+01  2.095090293E-07  0.00000E+00  9.000E+00
</event>
<event>
      6  10011  1.00000E+00  9.73975E+00 -1.00000E+00  1.97031E-01
      -2    -1     0     0     0   511  0.000000000E+00  0.000000000E+00  1.802611663E+02  1.802611663E+02  0.000000000E+00  0.00000E+00  9.000E+00
       2    -1     0     0   501     0  0.000000000E+00  0.000000000E+00 -1.518065060E+01  1.518065060E+01  0.000000000E+00  0.00000E+00  9.000E+00
      23     2     1     2     0     0 -8.137009883E+00 -5.352742318E+00  1.015422916E+02  1.311614257E+02  8.244767924E+01  0.00000E+00  9.000E+00
      11     1     3     3     0     0 -5.429198920E-01  6.829289292E+00 -1.354677134E+01  1.518054571E+01  5.109985304E-04  0.00000E+00  9.000E+00
     -11     1     3     3     0     0 -7.594089991E+00 -1.218203161E+01  1.150890630E+02  1.159808800E+02  5.110021739E-04  0.00000E+00  9.000E+00
      21     1     1     2   501   511  8.137009883E+00  5.352742318E+00  6.353822406E+01  6.428039123E+01  8.563955453E-07  0.00000E+00  9.000E+00
</event>
<event>
      6  10011  1.00000E+00  7.34871E+00 -1.00000E+00  2.12543E-01
       2    -1     0     0   511     0  0.000000000E+00  0.000000000E+00  5.148471507E+02  5.148471507E+02  0.000000000E+00  0.00000E+00  9.000E+00
      -2    -1     0     0     0   501  0.000000000E+00  0.000000000E+00 -5.138520458E+00  5.138520458E+00  0.000000000E+00  0.00000E+00  9.000E+00
      23     2     1     2     0     0 -7.347774602E+00 -1.173853142E-01  2.782964757E+02  2.884568633E+02  7.552767745E+01  0.00000E+00  9.000E+00
      11     1     3     3     0     0 -6.978766561E+00  2.858293907E+01  4.744277292E+01  5.582565979E+01  5.110001047E-04  0.00000E+00  9.000E+00
     -11     1     3     3     0     0 -3.690080403E-01 -2.870032438E+01  2.308537028E+02  2.326312036E+02  5.109875396E-04  0.00000E+00  9.000E+00
      21     1     1     2   511   501  7.347774602E+00  1.173853142E-01  2.314121546E+02  2.315288078E+02  2.929130167E-06  0.00000E+00  9.000E+00
</event>
<event>
      6  10011  1.00000E+00  9.38502E-01 -1.00000E+00  7.04726E-01
       2    -1     0     0   511     0  0.000000000E+00  0.000000000E+00  4.731917621E+02  4.731917621E+02  0.000000000E+00  0.00000E+00  9.000E+00
      -2    -1     0     0     0   501  0.000000000E+00  0.000000000E+00 -2.397437108E-01  2.397437108E-01  0.000000000E+00  0.00000E+00  9.000E+00
      23     2     1     2     0     0 -8.687993426E-01 -3.549289864E-01  4.398946963E+02  4.403608643E+02  2.023527066E+01  0.00000E+00  9.000E+00
      11     1     3     3     0     0  2.003078612E+00  7.354415090E+00  3.518719429E+02  3.519544913E+02  5.109733665E-04  0.00000E+00  9.000E+00
     -11     1     3     3     0     0 -2.871877955E+00 -7.709344077E+00  8.802275347E+01  8.840637306E+01  5.110012410E-04  0.00000E+00  9.000E+00
      21     1     1     2   511   501  8.687993426E-01  3.549289864E-01  3.305732210E+01  3.307064153E+01  5.037826748E-07  0.00000E+00  9.000E+00
</event>
<event>
      6  10011  1.00000E+00  1.56378E+00 -1.00000E+00  4.21318E-01
      -2    -1     0     0     0   511  0.000000000E+00  0.000000000E+00  2.204572203E+02  2.204572203E+02  0.000000000E+00  0.00000E+00  9.000E+00
       2    -1     0     0   501     0  0.000000000E+00  0.000000000E+00 -3.641704130E+00  3.641704130E+00  0.000000000E+00  0.00000E+00  9.000E+00
      23     2     1     2     0     0 -3.166087173E-01 -1.531395815E+00  1.829233955E+02  1.901707465E+02  5.197594432E+01  0.00000E+00  9.000E+00
      11     1     3     3     0     0  1.348912070E+01 -1.755670025E+01  4.024648445E+01  4.593444907E+01  5.109989326E-04  0.00000E+00  9.000E+00
     -11     1     3     3     0     0 -1.380572942E+01  1.602530444E+01  1.426769110E+02  1.442362974E+02  5.110043561E-04  0.00000E+00  9.000E+00
      21     1     1     2   501   511  3.166087173E-01  1.531395815E+00  3.389212066E+01  3.392817793E+01  7.386227686E-07  0.00000E+00  9.000E+00
</event>
<event>
      6  10011  1.00000E+00  2.65642E+00 -1.00000E+00  3.13719E-01
      21    -1     0     0   511   501  0.000000000E+00  0.000000000E+00  5.089523203E+01  5.089523203E+01  0.000000000E+00  0.00000E+00  9.000E+00
       4    -1     0     0   501     0  0.000000000E+00  0.000000000E+00 -2.624230006E+00  2.624230006E+00  0.000000000E+00  0.00000E+00  9.000E+00
      23     2     1     2     0     0 -1.317596547E+00 -2.306627751E+00  4.015048225E+01  4.497549143E+01  2.009171502E+01  0.00000E+00  9.000E+00
      11     1     3     3     0     0 -2.069002634E+00 -4.124619455E+00  4.201349895E+01  4.226614900E+01  5.109986435E-04  0.00000E+00  9.000E+00
     -11     1     3     3     0     0  7.514060868E-01  1.817991704E+00 -1.863016696E+00  2.709342432E+00  5.109989116E-04  0.00000E+00  9.000E+00
       4     1     1     2   511     0  1.317596547E+00  2.306627751E+00  8.120519773E+00  8.543970600E+00  6.741643351E-08  0.00000E+00  9.000E+00
</event>
<event>
      6  10011  1.00000E+00  1.50766E+01 -1.00000E+00  1.77128E-01
      -2    -1     0     0     0   501  0.000000000E+00  0.000000000E+00  6.373305076E+00  6.373305076E+00  0.000000000E+00  0.00000E+00  9.000E+00
       2    -1     0     0   511     0  0.000000000E+00  0.000000000E+00 -1.000800085E+03  1.000800085E+03  0.000000000E+00  0.00000E+00  9.000E+00
      23     2     1     2     0     0  1.421761896E+01  5.016190506E+00 -3.032292719E+02  3.158114747E+02  8.695742288E+01  0.00000E+00  9.000E+00
      11     1     3     3     0     0  3.283996528E+01  6.288666937E+00 -2.922490782E+02  2.941556295E+02  5.110072882E-04  0.00000E+00  9.000E+00
     -11     1     3     3     0     0 -1.862234632E+01 -1.272476431E+00 -1.098019363E+01  2.165584519E+01  5.110003671E-04  0.00000E+00  9.000E+00
      21     1     1     2   511   501 -1.421761896E+01 -5.016190506E+00 -6.911975083E+02  6.913619156E+02  9.919473678E-06  0.00000E+00  9.000E+00
</event>
<event>
      6  10011  1.00000E+00  7.92357E+00 -1.00000E+00  2.08151E-01
       2    -1     0     0   511     0  0.000000000E+00  0.000000000E+00  5.087400685E+02  5.087400685E+02  0.000000000E+00  0.00000E+00  9.000E+00
      -2    -1     0     0     0   501  0.000000000E+00  0.000000000E+00 -5.259400846E+00  5.259400846E+00  0.000000000E+00  0.00000E+00  9.000E+00
      23     2     1     2     0     0 -7.853838235E+00 -1.048870043E+00  4.164633607E+02  4.266221576E+02  9.220602812E+01  0.00000E+00  9.000E+00
      11     1     3     3     0     0 -1.031702546E+01  3.517522960E+01  3.400666117E+02  3.420366036E+02  5.110224442E-04  0.00000E+00  9.000E+00
     -11     1     3     3     0     0  2.463187230E+00 -3.622409964E+01  7.639674895E+01  8.458555395E+01  5.110047267E-04  0.00000E+00  9.000E+00
      21     1     1     2   511   501  7.853838235E+00  1.048870043E+00  8.701730696E+01  8.737731178E+01  9.044403377E-07  0.00000E+00  9.000E+00
</event>
<event>
      6  10011  1.00000E+00  3.40691E+01 -1.00000E+00  1.49266E-01
      21    -1     0     0   501   511  0.000000000E+00  0.000000000E+00  9.829769738E+01  9.829769738E+01  0.000000000E+00  0.00000E+00  9.000E+00
      -5    -1     0     0     0   501  0.000000000E+00  0.000000000E+00 -6.364370122E+01  6.364370122E+01  0.000000000E+00  0.00000E+00  9.000E+00
      23     2     1     2     0     0 -2.218885283E+01  2.585267985E+01  6.197247572E+01  1.182721237E+02  9.479979563E+01  0.00000E+00  9.000E+00
      11     1     3     3     0     0 -5.090595828E+01  4.349788882E+01  4.331844499E+01  7.974942380E+01  5.109987914E-04  0.00000E+00  9.000E+00
     -11     1     3     3     0     0  2.871710545E+01 -1.764520896E+01  1.865403074E+01  3.852269990E+01  5.109981899E-04  0.00000E+00  9.000E+00
      -5     1     1     2     0   511  2.218885283E+01 -2.585267985E+01 -2.731847956E+01  4.366927490E+01  4.580137995E-07  0.00000E+00  9.000E+00
</event>
<event>
      6  10011  1.00000E+00  1.08036E+00 -1.00000E+00  5.97189E-01
       2    -1     0     0   511     0  0.000000000E+00  0.000000000E+00  3.377910565E+02  3.377910565E+02  0.000000000E+00  0.00000E+00  9.000E+00
      -2    -1     0     0     0   501  0.000000000E+00  0.000000000E+00 -3.283211705E-01  3.283211705E-01  0.000000000E+00  0.00000E+00  9.000E+00
      23     2     1     2     0     0  1.058616371E+00 -2.156552691E-01  2.357488430E+02  2.363997479E+02  1.749733361E+01  0.00000E+00  9.000E+00
      11     1     3     3     0     0  5.095552593E+00  1.180723420E+00  2.205508113E+02  2.206128263E+02  5.110016742E-04  0.00000E+00  9.000E+00
     -11     1     3     3     0     0 -4.036936222E+00 -1.396378689E+00  1.519803165E+01  1.578692160E+01  5.109993360E-04  0.00000E+00  9.000E+00
      21     1     1     2   511   501 -1.058616371E+00  2.156552691E-01  1.017138924E+02  1.017196298E+02  1.090129683E-06  0.00000E+00  9.000E+00
</event>
<event>
      6  10011  1.00000E+00  1.44518E+00 -1.00000E+00  4.57390E-01
      -2    -1     0     0     0   501  0.000000000E+00  0.000000000E+00  7.721116399E-01  7.721116399E-01  0.000000000E+00  0.00000E+00  9.000E+00
       2    -1     0     0   511     0  0.000000000E+00  0.000000000E+00 -2.988731116E+02  2.988731116E+02  0.000000000E+00  0.00000E+00  9.000E+00
      23     2     1     2     0     0  1.310485631E+00  6.092316806E-01 -1.370684292E+02  1.386061678E+02  2.053842568E+01  0.00000E+00  9.000E+00
      11     1     3     3     0     0 -3.052812213E+00  4.075933650E-01 -1.314666458E+02  1.315027177E+02  5.109997240E-04  0.00000E+00  9.000E+00
     -11     1     3     3     0     0  4.363297844E+00  2.016383156E-01 -5.601783390E+00  7.103450112E+00  5.109986944E-04  0.00000E+00  9.000E+00
      21     1     1     2   511   501 -1.310485631E+00 -6.092316806E-01 -1.610325707E+02  1.610390554E+02  2.320757190E-06  0.00000E+00  9.000E+00
</event>
<event>
      6  10011  1.00000E+00  1.94939E+01 -1.00000E+00  1.67251E-01
      21    -1     0     0   511   501  0.000000000E+00  0.000000000E+00  1.089680648E+00  1.089680648E+00  0.000000000E+00  0.00000E+00  9.000E+00
       2    -1     0     0   501     0  0.000000000E+00  0.000000000E+00 -5.347387213E+02  5.347387213E+02  0.000000000E+00  0.00000E+00  9.000E+00
      23     2     1     2     0     0  1.471985476E+01 -1.278035608E+01 -3.804304685E+02  3.813747116E+02  1.842057595E+01  0.00000E+00  9.000E+00
      11     1     3     3     0     0  7.780818798E+00 -8.383771690E+00 -3.357878710E+02  3.359826232E+02  5.110311760E-04  0.00000E+00  9.000E+00
     -11     1     3     3     0     0  6.939035967E+00 -4.396584390E+00 -4.464259757E+01  4.539208843E+01  5.110048379E-04  0.00000E+00  9.000E+00
       2     1     1     2   511     0 -1.471985476E+01  1.278035608E+01 -1.532185721E+02  1.544536903E+02  2.299997971E-06  0.00000E+00  9.000E+00
</event>
<event>
      6  10011  1.00000E+00  8.24209E+00 -1.00000E+00  2.05927E-01
       1    -1     0     0   501     0  0.000000000E+00  0.000000000E+00  1.322317485E+02  1.322317485E+02  0.000000000E+00  0.00000E+00  9.000E+00
      -1    -1     0     0     0   511  0.000000000E+00  0.000000000E+00 -2.743141424E+00  2.743141424E+00  0.000000000E+00  0.00000E+00  9.000E+00
      23     2     1     2     0     0 -6.006850484E+00  5.643565601E+00  1.198707385E+02  1.223085771E+02  2.285742751E+01  0.00000E+00  9.000E+00
      11     1     3     3     0     0 -1.378963021E+01  4.157758750E+00  9.787966968E+01  9.893366766E+01  5.110011640E-04  0.00000E+00  9.000E+00
     -11     1     3     3     0     0  7.782779725E+00  1.485806851E+00  2.199106882E+01  2.337490942E+01  5.109983262E-04  0.00000E+00  9.000E+00
      21     1     1     2   501   511  6.006850484E+00 -5.643565601E+00  9.617868612E+00  1.266631288E+01  2.385495104E-07  0.00000E+00  9.000E+00
</event>
<event>
      6  10011  1.00000E+00  6.03785E+00 -1.00000E+00  2.24970E-01
      -1    -1     0     0     0   511  0.000000000E+00  0.000000000E+00  1.429116961E+01  1.429116961E+01  0.000000000E+00  0.00000E+00  9.000E+00
       1    -1     0     0   501     0  0.000000000E+00  0.000000000E+00 -3.896013743E+02  3.896013743E+02  0.000000000E+00  0.00000E+00  9.000E+00
      23     2     1     2     0     0 -3.953872004E+00 -4.563166874E+00 -3.830537808E+02  3.940732483E+02  9.234213787E+01  0.00000E+00  9.000E+00
      11     1     3     3     0     0 -3.677888693E+00  4.990435314E+00  3.688013468E+00  7.213373238E+00  5.109990228E-04  0.00000E+00  9.000E+00
     -11     1     3     3     0     0 -2.759833108E-01 -9.553602187E+00 -3.867417943E+02  3.868598750E+02  5.110467345E-04  0.00000E+00  9.000E+00
      21     1     1     2   501   511  3.953872004E+00  4.563166874E+00  7.743576106E+00  9.819295629E+00  1.733661413E-07  0.00000E+00  9.000E+00
</event>
<event>
      6  10011  1.00000E+00  3.14975E+00 -1.00000E+00  2.90460E-01
       2    -1     0     0   511     0  0.000000000E+00  0.000000000E+00  1.034483195E+02  1.034483195E+02  0.000000000E+00  0.00000E+00  9.000E+00
      -2    -1     0     0     0   501  0.000000000E+00  0.000000000E+00 -1.016554612E+01  1.016554612E+01  0.000000000E+00  0.00000E+00  9.000E+00
      23     2     1     2     0     0  2.252905320E+00  2.201213359E+00  8.647528989E+01  1.061130154E+02  6.141722357E+01  0.00000E+00  9.000E+00
      11     1     3     3     0     0  3.036948343E+01  5.229208662E+00  3.027975257E+01  4.320316612E+01  5.109987619E-04  0.00000E+00  9.000E+00
     -11     1     3     3     0     0 -2.811657811E+01 -3.027995303E+00  5.619553732E+01  6.290984927E+01  5.109987887E-04  0.00000E+00  9.000E+00
      21     1     1     2   511   501 -2.252905320E+00 -2.201213359E+00  6.807483531E+00  7.500850262E+00  4.619209754E-08  0.00000E+00  9.000E+00
</event>
<event>
      6  10011  1.00000E+00  1.29935E+00 -1.00000E+00  4.99624E-01
      -1    -1     0     0     0   501  0.000000000E+00  0.000000000E+00  5.185286488E+00  5.185286488E+00  0.000000000E+00  0.00000E+00  9.000E+00
       1    -1     0     0   511     0  0.000000000E+00  0.000000000E+00 -4.138615301E+02  4.138615301E+02  0.000000000E+00  0.00000E+00  9.000E+00
      23     2     1     2     0     0  2.748289639E-01 -1.269952452E+00 -3.683690342E+02  3.787186696E+02  8.792267639E+01  0.00000E+00  9.000E+00
      11     1     3     3     0     0 -3.357081936E+01 -1.991839368E+01 -9.616879541E+01  1.037891108E+02  5.110062741E-04  0.00000E+00  9.000E+00
     -11     1     3     3     0     0  3.384564832E+01  1.864844123E+01 -2.722002388E+02  2.749295587E+02  5.110334911E-04  0.00000E+00  9.000E+00
      21     1     1     2   511   501 -2.748289639E-01  1.269952452E+00 -4.030720946E+01  4.032814705E+01  5.633939676E-07  0.00000E+00  9.000E+00
</event>
<event>
      6  10011  1.00000E+00  3.57609E+00 -1.00000E+00  2.75368E-01
       3    -1     0     0   501     0  0.000000000E+00  0.000000000E+00  9.582463389E+00  9.582463389E+00  0.000000000E+00  0.00000E+00  9.000E+00
      21    -1     0     0   511   501  0.000000000E+00  0.000000000E+00 -4.264974793E+01  4.264974793E+01  0.000000000E+00  0.00000E+00  9.000E+00
      23     2     1     2     0     0 -1.302014070E+00 -3.330640044E+00 -1.380724654E+01  3.264299317E+01  2.936216175E+01  0.00000E+00  9.000E+00
      11     1     3     3     0     0 -1.205670247E+01 -6.104449642E+00  1.644507858E+00  1.361369848E+01  5.109989374E-04  0.00000E+00  9.000E+00
     -11     1     3     3     0     0  1.075468840E+01  2.773809597E+00 -1.545175440E+01  1.902929469E+01  5.109988977E-04  0.00000E+00  9.000E+00
       3     1     1     2   511     0  1.302014070E+00  3.330640044E+00 -1.926003800E+01  1.958921814E+01  1.783476651E-07  0.00000E+00  9.000E+00
</event>
<event>
      6  10011  1.00000E+00  1.15781E+01 -1.00000E+00  1.88623E-01
      -2    -1     0     0     0   501  0.000000000E+00  0.000000000E+00  1.083285664E+03  1.083285664E+03  0.000000000E+00  0.00000E+00  9.000E+00
      21    -1     0     0   501   511  0.000000000E+00  0.000000000E+00 -4.645642992E-01  4.645642992E-01  0.000000000E+00  0.00000E+00  9.000E+00
      23     2     1     2     0     0  9.254007060E+00  6.958167378E+00  9.870599644E+02  9.872916995E+02  1.798537963E+01  0.00000E+00  9.000E+00
      11     1     3     3     0     0  4.525815059E+00 -5.079568846E+00  5.453659864E+02  5.454084196E+02  5.110545205E-04  0.00000E+00  9.000E+00
     -11     1     3     3     0     0  4.728192000E+00  1.203773622E+01  4.416939780E+02  4.418832800E+02  5.110985370E-04  0.00000E+00  9.000E+00
      -2     1     1     2     0   511 -9.254007060E+00 -6.958167378E+00  9.576113518E+01  9.645852866E+01  1.630434914E-06  0.00000E+00  9.000E+00
</event>
<event>
      6  10011  1.00000E+00  1.23726E+01 -1.00000E+00  1.85590E-01
       2    -1     0     0   511     0  0.000000000E+00  0.000000000E+00  5.941012336E+01  5.941012336E+01  0.000000000E+00  0.00000E+00  9.000E+00
      -2    -1     0     0     0   501  0.000000000E+00  0.000000000E+00 -6.008707890E+01  6.008707890E+01  0.000000000E+00  0.00000E+00  9.000E+00
      23     2     1     2     0     0  1.092590253E+01 -5.805625433E+00 -1.991356679E+01  9.662521404E+01  9.373793903E+01  0.00000E+00  9.000E+00
      11     1     3     3     0     0  1.338271160E+01 -2.568064591E+01  3.069448800E+01  4.219886418E+01  5.109976452E-04  0.00000E+00  9.000E+00
     -11     1     3     3     0     0 -2.456809068E+00  1.987502048E+01 -5.060805479E+01  5.442634986E+01  5.109993408E-04  0.00000E+00  9.000E+00
      21     1     1     2   511   501 -1.092590253E+01  5.805625433E+00  1.923661125E+01  2.287198822E+01  1.810506415E-07  0.00000E+00  9.000E+00
</event>
<event>
      6  10011  1.00000E+00  2.62034E+00 -1.00000E+00  3.15760E-01
      -2    -1     0     0     0   511  0.000000000E+00  0.000000000E+00  1.226626662E+01  1.226626662E+01  0.000000000E+00  0.00000E+00  9.000E+00
       2    -1     0     0   501     0  0.000000000E+00  0.000000000E+00 -2.025505482E+02  2.025505482E+02  0.000000000E+00  0.00000E+00  9.000E+00
      23     2     1     2     0     0  1.155100180E+00  2.352003038E+00 -1.865641209E+02  2.102664555E+02  9.694815583E+01  0.00000E+00  9.000E+00
      11     1     3     3     0     0  4.194806041E+01 -1.653311925E+01 -1.324654908E+02  1.399288750E+02  5.109987715E-04  0.00000E+00  9.000E+00
     -11     1     3     3     0     0 -4.079296023E+01  1.888512229E+01 -5.409863004E+01  7.033758043E+01  5.109986262E-04  0.00000E+00  9.000E+00
      21     1     1     2   501   511 -1.155100180E+00 -2.352003038E+00 -3.720160728E+00  4.550359388E+00  3.405381981E-08  0.00000E+00  9.000E+00
</event>
<event>
      6  10011  1.00000E+00  2.09815E+00 -1.00000E+00  3.53430E-01
      -1    -1     0     0     0   501  0.000000000E+00  0.000000000E+00  8.948931753E+00  8.948931753E+00  0.000000000E+00  0.00000E+00  9.000E+00
      21    -1     0     0   501   511  0.000000000E+00  0.000000000E+00 -2.103569785E+01  2.103569785E+01  0.000000000E+00  0.00000E+00  9.000E+00
      23     2     1     2     0     0 -2.054564489E+00  4.254607227E-01 -5.401279331E+00  2.297763414E+01  2.223500844E+01  0.00000E+00  9.000E+00
      11     1     3     3     0     0 -1.025677763E+01  4.970032987E-01  3.523065749E+00  1.085635723E+01  5.109989074E-04  0.00000E+00  9.000E+00
     -11     1     3     3     0     0  8.202213143E+00 -7.154257603E-02 -8.924345080E+00  1.212127692E+01  5.109989163E-04  0.00000E+00  9.000E+00
      -1     1     1     2     0   511  2.054564489E+00 -4.254607227E-01 -6.685486762E+00  7.006995455E+00  2.718441099E-08  0.00000E+00  9.000E+00
</event>
<event>
      6  10011  1.00000E+00  2.18841E+00 -1.00000E+00  3.45567E-01
       2    -1     0     0   511     0  0.000000000E+00  0.000000000E+00  2.388731739E+01  2.388731739E+01  0.000000000E+00  0.00000E+00  9.000E+00
      -2    -1     0     0     0   501  0.000000000E+00  0.000000000E+00 -6.838134196E+00  6.838134196E+00  0.000000000E+00  0.00000E+00  9.000E+00
      23     2     1     2     0     0  1.557410107E+00  1.537399499E+00  1.144314228E+01  2.470741053E+01  2.178810470E+01  0.00000E+00  9.000E+00
      11     1     3     3     0     0 -5.269004454E+00 -2.409087895E-02 -4.731668353E+00  7.081784660E+00  5.109989225E-04  0.00000E+00  9.000E+00
     -11     1     3     3     0     0  6.826414561E+00  1.561490378E+00  1.617481063E+01  1.762562587E+01  5.109990358E-04  0.00000E+00  9.000E+00
      21     1     1     2   511   501 -1.557410107E+00 -1.537399499E+00  5.606040915E+00  6.018041061E+00  7.101296462E-08  0.00000E+00  9.000E+00
</event>
<event>
      6  10011  1.00000E+00  2.81419E+01 -1.00000E+00  1.54958E-01
      21    -1     0     0   511   501  0.000000000E+00  0.000000000E+00  2.104428060E+01  2.104428060E+01  0.000000000E+00  0.00000E+00  9.000E+00
       2    -1     0     0   501     0  0.000000000E+00  0.000000000E+00 -5.378409534E+02  5.378409534E+02  0.000000000E+00  0.00000E+00  9.000E+00
      23     2     1     2     0     0 -2.118812800E+01 -1.852101830E+01 -5.214801031E+02  5.303563117E+02  9.243567820E+01  0.00000E+00  9.000E+00
      11     1     3     3     0     0 -6.749119616E+00 -7.424392856E+00 -1.603514833E+00  1.016088013E+01  5.109980082E-04  0.00000E+00  9.000E+00
     -11     1     3     3     0     0 -1.443900839E+01 -1.109662544E+01 -5.198765883E+02  5.201954316E+02  5.109418622E-04  0.00000E+00  9.000E+00
       2     1     1     2   511     0  2.118812800E+01  1.852101830E+01  4.683430275E+00  2.852892227E+01  9.993130284E-07  0.00000E+00  9.000E+00
</event>
<event>
      6  10011  1.00000E+00  1.23718E+01 -1.00000E+00  1.85593E-01
       2    -1     0     0   511     0  0.000000000E+00  0.000000000E+00  1.995734979E+02  1.995734979E+02  0.000000000E+00  0.00000E+00  9.000E+00
      -2    -1     0     0     0   501  0.000000000E+00  0.000000000E+00 -1.698302274E+01  1.698302274E+01  0.000000000E+00  0.00000E+00  9.000E+00
      23     2     1     2     0     0 -8.305637791E+00 -9.169402187E+00  1.106477542E+02  1.435577764E+02  9.062476544E+01  0.00000E+00  9.000E+00
      11     1     3     3     0     0 -9.383922427E+00 -2.056509963E+01 -8.285078847E+00  2.407537860E+01  5.109994125E-04  0.00000E+00  9.000E+00
     -11     1     3     3     0     0  1.078284636E+00  1.139569744E+01  1.189328330E+02  1.194823978E+02  5.109944827E-04  0.00000E+00  9.000E+00
      21     1     1     2   511   501  8.305637791E+00  9.169402187E+00  7.194272099E+01  7.299874423E+01  8.935728282E-07  0.00000E+00  9.000E+00
</event>
<event>
      6  10011  1.00000E+00  1.46299E+01 -1.00000E+00  1.78364E-01
      21    -1     0     0   511   501  0.000000000E+00  0.000000000E+00  1.352000373E+00  1.352000373E+00  0.000000000E+00  0.00000E+00  9.000E+00
       4    -1     0     0   501     0  0.000000000E+00  0.000000000E+00 -4.101007984E+02  4.101007984E+02  0.000000000E+00  0.00000E+00  9.000E+00
      23     2     1     2     0     0 -1.407304579E+01  3.998057024E+00 -3.286596139E+02  3.300383498E+02  2.634645120E+01  0.00000E+00  9.000E+00
      11     1     3     3     0     0 -1.482309574E+01  2.916128960E+00 -8.229118958E+01  8.366640818E+01  5.109976878E-04  0.00000E+00  9.000E+00
     -11     1     3     3     0     0  7.500499455E-01  1.081928064E+00 -2.463684243E+02  2.463719416E+02  5.110095130E-04  0.00000E+00  9.000E+00
       4     1     1     2   511     0  1.407304579E+01 -3.998057024E+00 -8.008918416E+01  8.141444895E+01  7.848259260E-07  0.00000E+00  9.000E+00
</event>
</LesHouchesEvents>
